Written by MDAnalysis
23968
    1MPD2  CA16    1   2.526   2.687   3.352  0.0000  0.0000  0.0000
    1MPD2  CA17    2   2.396   2.699   3.398  0.0000  0.0000  0.0000
    1MPD2  CA18    3   2.287   2.663   3.315  0.0000  0.0000  0.0000
    1MPD2  CA19    4   2.312   2.613   3.191  0.0000  0.0000  0.0000
    1MPD2  CA20    5   2.444   2.603   3.139  0.0000  0.0000  0.0000
    1MPD2  CA21    6   2.551   2.637   3.224  0.0000  0.0000  0.0000
    1MPD2  HA22    7   2.378   2.722   3.502  0.0000  0.0000  0.0000
    1MPD2  HA23    8   2.242   2.577   3.116  0.0000  0.0000  0.0000
    1MPD2  HA24    9   2.461   2.565   3.039  0.0000  0.0000  0.0000
    1MPD2  HA25   10   2.652   2.636   3.185  0.0000  0.0000  0.0000
    1MPD2  HN26   11   2.659   2.818   3.429  0.0000  0.0000  0.0000
    1MPD2  HN27   12   2.149   2.730   3.439  0.0000  0.0000  0.0000
    1MPD2  NB28   13   2.632   2.721   3.440  0.0000  0.0000  0.0000
    1MPD2  NB29   14   2.158   2.659   3.367  0.0000  0.0000  0.0000
    2MPD2  CA16   15   2.452   2.426   3.866  0.0000  0.0000  0.0000
    2MPD2  CA17   16   2.347   2.512   3.836  0.0000  0.0000  0.0000
    2MPD2  CA18   17   2.229   2.511   3.912  0.0000  0.0000  0.0000
    2MPD2  CA19   18   2.221   2.428   4.025  0.0000  0.0000  0.0000
    2MPD2  CA20   19   2.330   2.349   4.061  0.0000  0.0000  0.0000
    2MPD2  CA21   20   2.448   2.355   3.987  0.0000  0.0000  0.0000
    2MPD2  HA22   21   2.353   2.577   3.749  0.0000  0.0000  0.0000
    2MPD2  HA23   22   2.133   2.429   4.090  0.0000  0.0000  0.0000
    2MPD2  HA24   23   2.329   2.295   4.155  0.0000  0.0000  0.0000
    2MPD2  HA25   24   2.535   2.302   4.024  0.0000  0.0000  0.0000
    2MPD2  HN26   25   2.650   2.457   3.841  0.0000  0.0000  0.0000
    2MPD2  HN27   26   2.143   2.646   3.793  0.0000  0.0000  0.0000
    2MPD2  NB28   27   2.577   2.411   3.788  0.0000  0.0000  0.0000
    2MPD2  NB29   28   2.117   2.578   3.863  0.0000  0.0000  0.0000
    3TMC2   C20   29   1.635   2.376   3.526  0.0000  0.0000  0.0000
    3TMC2  CA21   30   1.760   2.452   3.554  0.0000  0.0000  0.0000
    3TMC2  CA22   31   1.804   2.484   3.683  0.0000  0.0000  0.0000
    3TMC2  CA23   32   1.936   2.529   3.703  0.0000  0.0000  0.0000
    3TMC2  CA24   33   2.013   2.562   3.589  0.0000  0.0000  0.0000
    3TMC2  CA25   34   1.961   2.545   3.462  0.0000  0.0000  0.0000
    3TMC2  CA26   35   1.840   2.483   3.439  0.0000  0.0000  0.0000
    3TMC2  CB27   36   1.990   2.520   3.844  0.0000  0.0000  0.0000
    3TMC2  CB28   37   2.054   2.567   3.344  0.0000  0.0000  0.0000
    3TMC2  HA29   38   1.740   2.451   3.764  0.0000  0.0000  0.0000
    3TMC2  HA30   39   2.116   2.593   3.604  0.0000  0.0000  0.0000
    3TMC2  HA31   40   1.809   2.470   3.336  0.0000  0.0000  0.0000
    3TMC2  HO32   41   1.566   2.443   3.689  0.0000  0.0000  0.0000
    3TMC2   O33   42   1.614   2.316   3.422  0.0000  0.0000  0.0000
    3TMC2   O34   43   1.932   2.465   3.940  0.0000  0.0000  0.0000
    3TMC2   O35   44   2.045   2.510   3.240  0.0000  0.0000  0.0000
    3TMC2  OH36   45   1.548   2.368   3.630  0.0000  0.0000  0.0000
    4MPD2  CA16   46   3.974   1.270   4.379  0.0000  0.0000  0.0000
    4MPD2  CA17   47   3.862   1.352   4.396  0.0000  0.0000  0.0000
    4MPD2  CA18   48   3.862   1.466   4.475  0.0000  0.0000  0.0000
    4MPD2  CA19   49   3.975   1.502   4.547  0.0000  0.0000  0.0000
    4MPD2  CA20   50   4.086   1.414   4.540  0.0000  0.0000  0.0000
    4MPD2  CA21   51   4.085   1.308   4.459  0.0000  0.0000  0.0000
    4MPD2  HA22   52   3.780   1.334   4.327  0.0000  0.0000  0.0000
    4MPD2  HA23   53   3.975   1.592   4.607  0.0000  0.0000  0.0000
    4MPD2  HA24   54   4.177   1.413   4.601  0.0000  0.0000  0.0000
    4MPD2  HA25   55   4.179   1.255   4.445  0.0000  0.0000  0.0000
    4MPD2  HN26   56   3.889   1.157   4.224  0.0000  0.0000  0.0000
    4MPD2  HN27   57   3.678   1.545   4.550  0.0000  0.0000  0.0000
    4MPD2  NB28   58   3.977   1.177   4.270  0.0000  0.0000  0.0000
    4MPD2  NB29   59   3.748   1.552   4.476  0.0000  0.0000  0.0000
    5MPD2  CA16   60   3.112   2.187   3.871  0.0000  0.0000  0.0000
    5MPD2  CA17   61   3.153   2.137   3.992  0.0000  0.0000  0.0000
    5MPD2  CA18   62   3.267   2.064   3.995  0.0000  0.0000  0.0000
    5MPD2  CA19   63   3.331   2.019   3.873  0.0000  0.0000  0.0000
    5MPD2  CA20   64   3.301   2.082   3.755  0.0000  0.0000  0.0000
    5MPD2  CA21   65   3.185   2.159   3.755  0.0000  0.0000  0.0000
    5MPD2  HA22   66   3.094   2.159   4.081  0.0000  0.0000  0.0000
    5MPD2  HA23   67   3.421   1.958   3.880  0.0000  0.0000  0.0000
    5MPD2  HA24   68   3.356   2.052   3.666  0.0000  0.0000  0.0000
    5MPD2  HA25   69   3.135   2.181   3.661  0.0000  0.0000  0.0000
    5MPD2  HN26   70   3.005   2.345   3.813  0.0000  0.0000  0.0000
    5MPD2  HN27   71   3.229   1.958   4.167  0.0000  0.0000  0.0000
    5MPD2  NB28   72   2.992   2.255   3.858  0.0000  0.0000  0.0000
    5MPD2  NB29   73   3.306   1.999   4.114  0.0000  0.0000  0.0000
    6TMC2   C20   74   3.265   1.733   4.563  0.0000  0.0000  0.0000
    6TMC2  CA21   75   3.381   1.765   4.478  0.0000  0.0000  0.0000
    6TMC2  CA22   76   3.352   1.847   4.371  0.0000  0.0000  0.0000
    6TMC2  CA23   77   3.452   1.878   4.277  0.0000  0.0000  0.0000
    6TMC2  CA24   78   3.575   1.813   4.291  0.0000  0.0000  0.0000
    6TMC2  CA25   79   3.592   1.712   4.383  0.0000  0.0000  0.0000
    6TMC2  CA26   80   3.494   1.687   4.470  0.0000  0.0000  0.0000
    6TMC2  CB27   81   3.437   1.969   4.158  0.0000  0.0000  0.0000
    6TMC2  CB28   82   3.725   1.641   4.378  0.0000  0.0000  0.0000
    6TMC2  HA29   83   3.254   1.892   4.362  0.0000  0.0000  0.0000
    6TMC2  HA30   84   3.642   1.833   4.208  0.0000  0.0000  0.0000
    6TMC2  HA31   85   3.514   1.609   4.543  0.0000  0.0000  0.0000
    6TMC2  HO32   86   3.256   1.914   4.607  0.0000  0.0000  0.0000
    6TMC2   O33   87   3.251   1.614   4.591  0.0000  0.0000  0.0000
    6TMC2   O34   88   3.534   2.008   4.096  0.0000  0.0000  0.0000
    6TMC2   O35   89   3.816   1.666   4.299  0.0000  0.0000  0.0000
    6TMC2  OH36   90   3.202   1.834   4.622  0.0000  0.0000  0.0000
    7MPD1   CA1   91  -0.448   1.830   1.720  0.0000  0.0000  0.0000
    7MPD1   CA2   92  -0.378   1.719   1.775  0.0000  0.0000  0.0000
    7MPD1   CA3   93  -0.242   1.715   1.810  0.0000  0.0000  0.0000
    7MPD1   CA4   94  -0.177   1.838   1.803  0.0000  0.0000  0.0000
    7MPD1   CA5   95  -0.246   1.944   1.753  0.0000  0.0000  0.0000
    7MPD1   CA6   96  -0.383   1.954   1.722  0.0000  0.0000  0.0000
    7MPD1  HA10   97  -0.425   2.048   1.688  0.0000  0.0000  0.0000
    7MPD1   HA7   98  -0.437   1.630   1.793  0.0000  0.0000  0.0000
    7MPD1   HA8   99  -0.073   1.858   1.828  0.0000  0.0000  0.0000
    7MPD1   HA9  100  -0.193   2.039   1.747  0.0000  0.0000  0.0000
    7MPD1  HN11  101  -0.614   1.866   1.608  0.0000  0.0000  0.0000
    7MPD1  HN12  102  -0.217   1.509   1.814  0.0000  0.0000  0.0000
    7MPD1  HN13  103  -0.073   1.597   1.844  0.0000  0.0000  0.0000
    7MPD1  NB14  104  -0.586   1.825   1.697  0.0000  0.0000  0.0000
    7MPD1  NH15  105  -0.174   1.597   1.841  0.0000  0.0000  0.0000
    8MPD1   CA1  106   0.479   3.230   3.389  0.0000  0.0000  0.0000
    8MPD1   CA2  107   0.529   3.177   3.513  0.0000  0.0000  0.0000
    8MPD1   CA3  108   0.667   3.176   3.534  0.0000  0.0000  0.0000
    8MPD1   CA4  109   0.755   3.211   3.430  0.0000  0.0000  0.0000
    8MPD1   CA5  110   0.704   3.248   3.305  0.0000  0.0000  0.0000
    8MPD1   CA6  111   0.567   3.266   3.287  0.0000  0.0000  0.0000
    8MPD1  HA10  112   0.528   3.305   3.194  0.0000  0.0000  0.0000
    8MPD1   HA7  113   0.466   3.138   3.592  0.0000  0.0000  0.0000
    8MPD1   HA8  114   0.862   3.201   3.444  0.0000  0.0000  0.0000
    8MPD1   HA9  115   0.779   3.268   3.229  0.0000  0.0000  0.0000
    8MPD1  HN11  116   0.298   3.299   3.458  0.0000  0.0000  0.0000
    8MPD1  HN12  117   0.626   3.174   3.728  0.0000  0.0000  0.0000
    8MPD1  HN13  118   0.795   3.176   3.691  0.0000  0.0000  0.0000
    8MPD1  NB14  119   0.337   3.253   3.376  0.0000  0.0000  0.0000
    8MPD1  NH15  120   0.701   3.153   3.663  0.0000  0.0000  0.0000
    9MPD1   CA1  121   2.473  -0.549   2.013  0.0000  0.0000  0.0000
    9MPD1   CA2  122   2.488  -0.655   1.922  0.0000  0.0000  0.0000
    9MPD1   CA3  123   2.610  -0.716   1.900  0.0000  0.0000  0.0000
    9MPD1   CA4  124   2.722  -0.675   1.970  0.0000  0.0000  0.0000
    9MPD1   CA5  125   2.707  -0.567   2.060  0.0000  0.0000  0.0000
    9MPD1   CA6  126   2.591  -0.503   2.080  0.0000  0.0000  0.0000
    9MPD1  HA10  127   2.589  -0.434   2.164  0.0000  0.0000  0.0000
    9MPD1   HA7  128   2.398  -0.702   1.882  0.0000  0.0000  0.0000
    9MPD1   HA8  129   2.820  -0.720   1.959  0.0000  0.0000  0.0000
    9MPD1   HA9  130   2.795  -0.539   2.117  0.0000  0.0000  0.0000
    9MPD1  HN11  131   2.296  -0.438   1.977  0.0000  0.0000  0.0000
    9MPD1  HN12  132   2.533  -0.863   1.788  0.0000  0.0000  0.0000
    9MPD1  HN13  133   2.688  -0.898   1.845  0.0000  0.0000  0.0000
    9MPD1  NB14  134   2.353  -0.487   2.045  0.0000  0.0000  0.0000
    9MPD1  NH15  135   2.623  -0.826   1.816  0.0000  0.0000  0.0000
   10MPD1   CA1  136   3.514   2.191   2.900  0.0000  0.0000  0.0000
   10MPD1   CA2  137   3.458   2.271   3.000  0.0000  0.0000  0.0000
   10MPD1   CA3  138   3.462   2.411   2.983  0.0000  0.0000  0.0000
   10MPD1   CA4  139   3.528   2.468   2.875  0.0000  0.0000  0.0000
   10MPD1   CA5  140   3.577   2.385   2.771  0.0000  0.0000  0.0000
   10MPD1   CA6  141   3.569   2.246   2.787  0.0000  0.0000  0.0000
   10MPD1  HA10  142   3.606   2.181   2.708  0.0000  0.0000  0.0000
   10MPD1   HA7  143   3.414   2.221   3.086  0.0000  0.0000  0.0000
   10MPD1   HA8  144   3.541   2.575   2.861  0.0000  0.0000  0.0000
   10MPD1   HA9  145   3.615   2.423   2.677  0.0000  0.0000  0.0000
   10MPD1  HN11  146   3.583   2.013   2.985  0.0000  0.0000  0.0000
   10MPD1  HN12  147   3.332   2.455   3.135  0.0000  0.0000  0.0000
   10MPD1  HN13  148   3.409   2.592   3.061  0.0000  0.0000  0.0000
   10MPD1  NB14  149   3.522   2.050   2.914  0.0000  0.0000  0.0000
   10MPD1  NH15  150   3.409   2.493   3.082  0.0000  0.0000  0.0000
   11MPD1   CA1  151   2.432   2.952   2.907  0.0000  0.0000  0.0000
   11MPD1   CA2  152   2.562   2.909   2.918  0.0000  0.0000  0.0000
   11MPD1   CA3  153   2.671   2.993   2.891  0.0000  0.0000  0.0000
   11MPD1   CA4  154   2.640   3.129   2.861  0.0000  0.0000  0.0000
   11MPD1   CA5  155   2.513   3.177   2.857  0.0000  0.0000  0.0000
   11MPD1   CA6  156   2.412   3.094   2.894  0.0000  0.0000  0.0000
   11MPD1  HA10  157   2.311   3.132   2.882  0.0000  0.0000  0.0000
   11MPD1   HA7  158   2.578   2.802   2.927  0.0000  0.0000  0.0000
   11MPD1   HA8  159   2.715   3.207   2.848  0.0000  0.0000  0.0000
   11MPD1   HA9  160   2.487   3.279   2.830  0.0000  0.0000  0.0000
   11MPD1  HN11  161   2.243   2.906   2.994  0.0000  0.0000  0.0000
   11MPD1  HN12  162   2.805   2.844   2.908  0.0000  0.0000  0.0000
   11MPD1  HN13  163   2.881   3.002   2.893  0.0000  0.0000  0.0000
   11MPD1  NB14  164   2.317   2.866   2.937  0.0000  0.0000  0.0000
   11MPD1  NH15  165   2.801   2.941   2.881  0.0000  0.0000  0.0000
   12MPD1   CA1  166   0.142   2.794   3.286  0.0000  0.0000  0.0000
   12MPD1   CA2  167   0.258   2.742   3.354  0.0000  0.0000  0.0000
   12MPD1   CA3  168   0.311   2.809   3.467  0.0000  0.0000  0.0000
   12MPD1   CA4  169   0.243   2.924   3.520  0.0000  0.0000  0.0000
   12MPD1   CA5  170   0.132   2.973   3.458  0.0000  0.0000  0.0000
   12MPD1   CA6  171   0.077   2.904   3.345  0.0000  0.0000  0.0000
   12MPD1  HA10  172  -0.017   2.935   3.301  0.0000  0.0000  0.0000
   12MPD1   HA7  173   0.316   2.662   3.308  0.0000  0.0000  0.0000
   12MPD1   HA8  174   0.290   2.975   3.603  0.0000  0.0000  0.0000
   12MPD1   HA9  175   0.108   3.072   3.495  0.0000  0.0000  0.0000
   12MPD1  HN11  176   0.127   2.622   3.171  0.0000  0.0000  0.0000
   12MPD1  HN12  177   0.465   2.817   3.601  0.0000  0.0000  0.0000
   12MPD1  HN13  178   0.456   2.668   3.505  0.0000  0.0000  0.0000
   12MPD1  NB14  179   0.091   2.716   3.180  0.0000  0.0000  0.0000
   12MPD1  NH15  180   0.424   2.761   3.527  0.0000  0.0000  0.0000
   13MPD1   CA1  181  -0.300   0.870   3.094  0.0000  0.0000  0.0000
   13MPD1   CA2  182  -0.300   0.964   2.991  0.0000  0.0000  0.0000
   13MPD1   CA3  183  -0.208   0.961   2.888  0.0000  0.0000  0.0000
   13MPD1   CA4  184  -0.118   0.855   2.882  0.0000  0.0000  0.0000
   13MPD1   CA5  185  -0.122   0.753   2.975  0.0000  0.0000  0.0000
   13MPD1   CA6  186  -0.204   0.773   3.088  0.0000  0.0000  0.0000
   13MPD1  HA10  187  -0.205   0.691   3.159  0.0000  0.0000  0.0000
   13MPD1   HA7  188  -0.361   1.053   3.003  0.0000  0.0000  0.0000
   13MPD1   HA8  189  -0.045   0.848   2.802  0.0000  0.0000  0.0000
   13MPD1   HA9  190  -0.048   0.674   2.969  0.0000  0.0000  0.0000
   13MPD1  HN11  191  -0.491   0.915   3.164  0.0000  0.0000  0.0000
   13MPD1  HN12  192  -0.271   1.132   2.785  0.0000  0.0000  0.0000
   13MPD1  HN13  193  -0.107   1.086   2.760  0.0000  0.0000  0.0000
   13MPD1  NB14  194  -0.404   0.876   3.197  0.0000  0.0000  0.0000
   13MPD1  NH15  195  -0.200   1.060   2.792  0.0000  0.0000  0.0000
   14MPD1   CA1  196  -0.152   3.063   2.811  0.0000  0.0000  0.0000
   14MPD1   CA2  197  -0.234   3.177   2.809  0.0000  0.0000  0.0000
   14MPD1   CA3  198  -0.357   3.188   2.737  0.0000  0.0000  0.0000
   14MPD1   CA4  199  -0.394   3.076   2.666  0.0000  0.0000  0.0000
   14MPD1   CA5  200  -0.317   2.961   2.666  0.0000  0.0000  0.0000
   14MPD1   CA6  201  -0.202   2.950   2.747  0.0000  0.0000  0.0000
   14MPD1  HA10  202  -0.156   2.851   2.750  0.0000  0.0000  0.0000
   14MPD1   HA7  203  -0.197   3.260   2.868  0.0000  0.0000  0.0000
   14MPD1   HA8  204  -0.490   3.066   2.616  0.0000  0.0000  0.0000
   14MPD1   HA9  205  -0.348   2.872   2.613  0.0000  0.0000  0.0000
   14MPD1  HN11  206  -0.045   3.130   2.977  0.0000  0.0000  0.0000
   14MPD1  HN12  207  -0.462   3.326   2.836  0.0000  0.0000  0.0000
   14MPD1  HN13  208  -0.528   3.281   2.691  0.0000  0.0000  0.0000
   14MPD1  NB14  209  -0.041   3.078   2.890  0.0000  0.0000  0.0000
   14MPD1  NH15  210  -0.441   3.294   2.743  0.0000  0.0000  0.0000
   15MPD2  CA16  211   0.289   1.418   3.920  0.0000  0.0000  0.0000
   15MPD2  CA17  212   0.320   1.443   3.784  0.0000  0.0000  0.0000
   15MPD2  CA18  213   0.362   1.574   3.744  0.0000  0.0000  0.0000
   15MPD2  CA19  214   0.365   1.679   3.838  0.0000  0.0000  0.0000
   15MPD2  CA20  215   0.325   1.657   3.970  0.0000  0.0000  0.0000
   15MPD2  CA21  216   0.308   1.527   4.011  0.0000  0.0000  0.0000
   15MPD2  HA22  217   0.299   1.368   3.709  0.0000  0.0000  0.0000
   15MPD2  HA23  218   0.394   1.780   3.809  0.0000  0.0000  0.0000
   15MPD2  HA24  219   0.323   1.740   4.040  0.0000  0.0000  0.0000
   15MPD2  HA25  220   0.295   1.508   4.117  0.0000  0.0000  0.0000
   15MPD2  HN26  221   0.236   1.217   3.892  0.0000  0.0000  0.0000
   15MPD2  HN27  222   0.443   1.700   3.593  0.0000  0.0000  0.0000
   15MPD2  NB28  223   0.261   1.284   3.964  0.0000  0.0000  0.0000
   15MPD2  NB29  224   0.410   1.605   3.607  0.0000  0.0000  0.0000
   16MPD1   CA1  225   1.576  -0.529   2.379  0.0000  0.0000  0.0000
   16MPD1   CA2  226   1.569  -0.515   2.520  0.0000  0.0000  0.0000
   16MPD1   CA3  227   1.452  -0.535   2.595  0.0000  0.0000  0.0000
   16MPD1   CA4  228   1.338  -0.573   2.521  0.0000  0.0000  0.0000
   16MPD1   CA5  229   1.342  -0.576   2.382  0.0000  0.0000  0.0000
   16MPD1   CA6  230   1.459  -0.548   2.312  0.0000  0.0000  0.0000
   16MPD1  HA10  231   1.451  -0.542   2.204  0.0000  0.0000  0.0000
   16MPD1   HA7  232   1.655  -0.485   2.578  0.0000  0.0000  0.0000
   16MPD1   HA8  233   1.243  -0.595   2.570  0.0000  0.0000  0.0000
   16MPD1   HA9  234   1.253  -0.609   2.330  0.0000  0.0000  0.0000
   16MPD1  HN11  235   1.679  -0.439   2.228  0.0000  0.0000  0.0000
   16MPD1  HN12  236   1.534  -0.553   2.788  0.0000  0.0000  0.0000
   16MPD1  HN13  237   1.371  -0.572   2.778  0.0000  0.0000  0.0000
   16MPD1  NB14  238   1.692  -0.494   2.312  0.0000  0.0000  0.0000
   16MPD1  NH15  239   1.452  -0.530   2.734  0.0000  0.0000  0.0000
   17MPD2  CA16  240   0.123   2.332   3.528  0.0000  0.0000  0.0000
   17MPD2  CA17  241   0.025   2.256   3.592  0.0000  0.0000  0.0000
   17MPD2  CA18  242  -0.113   2.289   3.568  0.0000  0.0000  0.0000
   17MPD2  CA19  243  -0.151   2.403   3.505  0.0000  0.0000  0.0000
   17MPD2  CA20  244  -0.055   2.470   3.431  0.0000  0.0000  0.0000
   17MPD2  CA21  245   0.079   2.431   3.439  0.0000  0.0000  0.0000
   17MPD2  HA22  246   0.058   2.170   3.650  0.0000  0.0000  0.0000
   17MPD2  HA23  247  -0.255   2.433   3.500  0.0000  0.0000  0.0000
   17MPD2  HA24  248  -0.082   2.550   3.362  0.0000  0.0000  0.0000
   17MPD2  HA25  249   0.149   2.498   3.391  0.0000  0.0000  0.0000
   17MPD2  HN26  250   0.277   2.209   3.589  0.0000  0.0000  0.0000
   17MPD2  HN27  251  -0.211   2.189   3.727  0.0000  0.0000  0.0000
   17MPD2  NB28  252   0.262   2.301   3.551  0.0000  0.0000  0.0000
   17MPD2  NB29  253  -0.217   2.208   3.627  0.0000  0.0000  0.0000
   18MPD1   CA1  254  -0.194   0.512   3.929  0.0000  0.0000  0.0000
   18MPD1   CA2  255  -0.240   0.387   3.967  0.0000  0.0000  0.0000
   18MPD1   CA3  256  -0.265   0.353   4.100  0.0000  0.0000  0.0000
   18MPD1   CA4  257  -0.263   0.450   4.203  0.0000  0.0000  0.0000
   18MPD1   CA5  258  -0.227   0.576   4.165  0.0000  0.0000  0.0000
   18MPD1   CA6  259  -0.190   0.607   4.036  0.0000  0.0000  0.0000
   18MPD1  HA10  260  -0.140   0.703   4.025  0.0000  0.0000  0.0000
   18MPD1   HA7  261  -0.248   0.307   3.893  0.0000  0.0000  0.0000
   18MPD1   HA8  262  -0.297   0.431   4.304  0.0000  0.0000  0.0000
   18MPD1   HA9  263  -0.231   0.653   4.241  0.0000  0.0000  0.0000
   18MPD1  HN11  264  -0.061   0.593   3.793  0.0000  0.0000  0.0000
   18MPD1  HN12  265  -0.388   0.232   4.203  0.0000  0.0000  0.0000
   18MPD1  HN13  266  -0.339   0.171   4.056  0.0000  0.0000  0.0000
   18MPD1  NB14  267  -0.152   0.549   3.795  0.0000  0.0000  0.0000
   18MPD1  NH15  268  -0.313   0.228   4.136  0.0000  0.0000  0.0000
   19MPD1   CA1  269   0.545   2.108   3.048  0.0000  0.0000  0.0000
   19MPD1   CA2  270   0.482   2.219   3.111  0.0000  0.0000  0.0000
   19MPD1   CA3  271   0.506   2.353   3.067  0.0000  0.0000  0.0000
   19MPD1   CA4  272   0.583   2.372   2.954  0.0000  0.0000  0.0000
   19MPD1   CA5  273   0.644   2.258   2.892  0.0000  0.0000  0.0000
   19MPD1   CA6  274   0.630   2.128   2.938  0.0000  0.0000  0.0000
   19MPD1  HA10  275   0.682   2.048   2.885  0.0000  0.0000  0.0000
   19MPD1   HA7  276   0.432   2.198   3.205  0.0000  0.0000  0.0000
   19MPD1   HA8  277   0.605   2.474   2.924  0.0000  0.0000  0.0000
   19MPD1   HA9  278   0.710   2.275   2.808  0.0000  0.0000  0.0000
   19MPD1  HN11  279   0.634   1.930   3.045  0.0000  0.0000  0.0000
   19MPD1  HN12  280   0.476   2.558   3.120  0.0000  0.0000  0.0000
   19MPD1  HN13  281   0.411   2.442   3.230  0.0000  0.0000  0.0000
   19MPD1  NB14  282   0.559   1.973   3.097  0.0000  0.0000  0.0000
   19MPD1  NH15  283   0.453   2.462   3.140  0.0000  0.0000  0.0000
   20MPD1   CA1  284   0.222   2.374   2.470  0.0000  0.0000  0.0000
   20MPD1   CA2  285   0.168   2.256   2.420  0.0000  0.0000  0.0000
   20MPD1   CA3  286   0.246   2.172   2.342  0.0000  0.0000  0.0000
   20MPD1   CA4  287   0.371   2.216   2.291  0.0000  0.0000  0.0000
   20MPD1   CA5  288   0.417   2.343   2.330  0.0000  0.0000  0.0000
   20MPD1   CA6  289   0.353   2.412   2.431  0.0000  0.0000  0.0000
   20MPD1  HA10  290   0.396   2.503   2.472  0.0000  0.0000  0.0000
   20MPD1   HA7  291   0.068   2.227   2.451  0.0000  0.0000  0.0000
   20MPD1   HA8  292   0.428   2.155   2.221  0.0000  0.0000  0.0000
   20MPD1   HA9  293   0.508   2.388   2.291  0.0000  0.0000  0.0000
   20MPD1  HN11  294   0.067   2.508   2.516  0.0000  0.0000  0.0000
   20MPD1  HN12  295   0.277   1.974   2.276  0.0000  0.0000  0.0000
   20MPD1  HN13  296   0.119   2.003   2.334  0.0000  0.0000  0.0000
   20MPD1  NB14  297   0.150   2.466   2.556  0.0000  0.0000  0.0000
   20MPD1  NH15  298   0.204   2.042   2.295  0.0000  0.0000  0.0000
   21MPD2  CA16  299   1.796   2.765   2.119  0.0000  0.0000  0.0000
   21MPD2  CA17  300   1.776   2.704   2.240  0.0000  0.0000  0.0000
   21MPD2  CA18  301   1.661   2.630   2.272  0.0000  0.0000  0.0000
   21MPD2  CA19  302   1.557   2.626   2.173  0.0000  0.0000  0.0000
   21MPD2  CA20  303   1.573   2.685   2.053  0.0000  0.0000  0.0000
   21MPD2  CA21  304   1.696   2.750   2.019  0.0000  0.0000  0.0000
   21MPD2  HA22  305   1.837   2.730   2.326  0.0000  0.0000  0.0000
   21MPD2  HA23  306   1.471   2.562   2.187  0.0000  0.0000  0.0000
   21MPD2  HA24  307   1.497   2.686   1.975  0.0000  0.0000  0.0000
   21MPD2  HA25  308   1.702   2.799   1.922  0.0000  0.0000  0.0000
   21MPD2  HN26  309   1.902   2.942   2.071  0.0000  0.0000  0.0000
   21MPD2  HN27  310   1.611   2.658   2.461  0.0000  0.0000  0.0000
   21MPD2  NB28  311   1.912   2.843   2.090  0.0000  0.0000  0.0000
   21MPD2  NB29  312   1.641   2.583   2.400  0.0000  0.0000  0.0000
   22MPD2  CA16  313   1.193   2.993   2.926  0.0000  0.0000  0.0000
   22MPD2  CA17  314   1.254   2.880   2.871  0.0000  0.0000  0.0000
   22MPD2  CA18  315   1.386   2.841   2.899  0.0000  0.0000  0.0000
   22MPD2  CA19  316   1.468   2.937   2.960  0.0000  0.0000  0.0000
   22MPD2  CA20  317   1.409   3.051   3.005  0.0000  0.0000  0.0000
   22MPD2  CA21  318   1.278   3.083   2.992  0.0000  0.0000  0.0000
   22MPD2  HA22  319   1.194   2.808   2.816  0.0000  0.0000  0.0000
   22MPD2  HA23  320   1.569   2.901   2.979  0.0000  0.0000  0.0000
   22MPD2  HA24  321   1.473   3.131   3.043  0.0000  0.0000  0.0000
   22MPD2  HA25  322   1.241   3.175   3.036  0.0000  0.0000  0.0000
   22MPD2  HN26  323   1.012   2.945   2.838  0.0000  0.0000  0.0000
   22MPD2  HN27  324   1.500   2.732   2.763  0.0000  0.0000  0.0000
   22MPD2  NB28  325   1.049   3.004   2.912  0.0000  0.0000  0.0000
   22MPD2  NB29  326   1.435   2.720   2.840  0.0000  0.0000  0.0000
   23MPD1   CA1  327   0.883  -1.175   2.935  0.0000  0.0000  0.0000
   23MPD1   CA2  328   0.778  -1.165   2.839  0.0000  0.0000  0.0000
   23MPD1   CA3  329   0.796  -1.230   2.717  0.0000  0.0000  0.0000
   23MPD1   CA4  330   0.920  -1.279   2.682  0.0000  0.0000  0.0000
   23MPD1   CA5  331   1.029  -1.277   2.769  0.0000  0.0000  0.0000
   23MPD1   CA6  332   1.007  -1.234   2.896  0.0000  0.0000  0.0000
   23MPD1  HA10  333   1.087  -1.241   2.968  0.0000  0.0000  0.0000
   23MPD1   HA7  334   0.682  -1.120   2.862  0.0000  0.0000  0.0000
   23MPD1   HA8  335   0.934  -1.319   2.582  0.0000  0.0000  0.0000
   23MPD1   HA9  336   1.122  -1.329   2.746  0.0000  0.0000  0.0000
   23MPD1  HN11  337   0.759  -1.128   3.095  0.0000  0.0000  0.0000
   23MPD1  HN12  338   0.603  -1.216   2.658  0.0000  0.0000  0.0000
   23MPD1  HN13  339   0.688  -1.335   2.572  0.0000  0.0000  0.0000
   23MPD1  NB14  340   0.857  -1.132   3.070  0.0000  0.0000  0.0000
   23MPD1  NH15  341   0.693  -1.246   2.621  0.0000  0.0000  0.0000
   24MPD1   CA1  342   1.024  -1.116   3.741  0.0000  0.0000  0.0000
   24MPD1   CA2  343   1.039  -1.234   3.663  0.0000  0.0000  0.0000
   24MPD1   CA3  344   1.004  -1.362   3.709  0.0000  0.0000  0.0000
   24MPD1   CA4  345   0.927  -1.361   3.826  0.0000  0.0000  0.0000
   24MPD1   CA5  346   0.904  -1.253   3.905  0.0000  0.0000  0.0000
   24MPD1   CA6  347   0.952  -1.128   3.863  0.0000  0.0000  0.0000
   24MPD1  HA10  348   0.930  -1.043   3.926  0.0000  0.0000  0.0000
   24MPD1   HA7  349   1.094  -1.223   3.569  0.0000  0.0000  0.0000
   24MPD1   HA8  350   0.899  -1.452   3.879  0.0000  0.0000  0.0000
   24MPD1   HA9  351   0.853  -1.268   4.000  0.0000  0.0000  0.0000
   24MPD1  HN11  352   1.144  -0.953   3.776  0.0000  0.0000  0.0000
   24MPD1  HN12  353   1.064  -1.492   3.553  0.0000  0.0000  0.0000
   24MPD1  HN13  354   0.998  -1.577   3.684  0.0000  0.0000  0.0000
   24MPD1  NB14  355   1.076  -0.988   3.709  0.0000  0.0000  0.0000
   24MPD1  NH15  356   1.023  -1.487   3.645  0.0000  0.0000  0.0000
   25MPD2  CA16  357   0.905   2.655   3.112  0.0000  0.0000  0.0000
   25MPD2  CA17  358   0.780   2.722   3.098  0.0000  0.0000  0.0000
   25MPD2  CA18  359   0.734   2.826   3.176  0.0000  0.0000  0.0000
   25MPD2  CA19  360   0.828   2.878   3.270  0.0000  0.0000  0.0000
   25MPD2  CA20  361   0.947   2.812   3.290  0.0000  0.0000  0.0000
   25MPD2  CA21  362   0.987   2.693   3.224  0.0000  0.0000  0.0000
   25MPD2  HA22  363   0.709   2.684   3.025  0.0000  0.0000  0.0000
   25MPD2  HA23  364   0.816   2.968   3.330  0.0000  0.0000  0.0000
   25MPD2  HA24  365   1.014   2.849   3.368  0.0000  0.0000  0.0000
   25MPD2  HA25  366   1.086   2.652   3.242  0.0000  0.0000  0.0000
   25MPD2  HN26  367   0.936   2.458   3.072  0.0000  0.0000  0.0000
   25MPD2  HN27  368   0.611   2.987   3.182  0.0000  0.0000  0.0000
   25MPD2  NB28  369   0.932   2.549   3.028  0.0000  0.0000  0.0000
   25MPD2  NB29  370   0.612   2.890   3.152  0.0000  0.0000  0.0000
   26MPD1   CA1  371   0.427   0.137   2.590  0.0000  0.0000  0.0000
   26MPD1   CA2  372   0.447   0.247   2.671  0.0000  0.0000  0.0000
   26MPD1   CA3  373   0.348   0.342   2.683  0.0000  0.0000  0.0000
   26MPD1   CA4  374   0.226   0.330   2.615  0.0000  0.0000  0.0000
   26MPD1   CA5  375   0.202   0.222   2.531  0.0000  0.0000  0.0000
   26MPD1   CA6  376   0.303   0.131   2.516  0.0000  0.0000  0.0000
   26MPD1  HA10  377   0.273   0.047   2.453  0.0000  0.0000  0.0000
   26MPD1   HA7  378   0.538   0.259   2.729  0.0000  0.0000  0.0000
   26MPD1   HA8  379   0.157   0.413   2.623  0.0000  0.0000  0.0000
   26MPD1   HA9  380   0.113   0.209   2.470  0.0000  0.0000  0.0000
   26MPD1  HN11  381   0.627   0.095   2.570  0.0000  0.0000  0.0000
   26MPD1  HN12  382   0.301   0.535   2.736  0.0000  0.0000  0.0000
   26MPD1  HN13  383   0.456   0.481   2.793  0.0000  0.0000  0.0000
   26MPD1  NB14  384   0.537   0.048   2.572  0.0000  0.0000  0.0000
   26MPD1  NH15  385   0.374   0.465   2.736  0.0000  0.0000  0.0000
   27MPD2  CA16  386  -0.675   1.564   3.481  0.0000  0.0000  0.0000
   27MPD2  CA17  387  -0.562   1.483   3.480  0.0000  0.0000  0.0000
   27MPD2  CA18  388  -0.555   1.358   3.411  0.0000  0.0000  0.0000
   27MPD2  CA19  389  -0.672   1.321   3.350  0.0000  0.0000  0.0000
   27MPD2  CA20  390  -0.773   1.420   3.329  0.0000  0.0000  0.0000
   27MPD2  CA21  391  -0.785   1.532   3.402  0.0000  0.0000  0.0000
   27MPD2  HA22  392  -0.481   1.515   3.545  0.0000  0.0000  0.0000
   27MPD2  HA23  393  -0.675   1.226   3.299  0.0000  0.0000  0.0000
   27MPD2  HA24  394  -0.859   1.400   3.265  0.0000  0.0000  0.0000
   27MPD2  HA25  395  -0.875   1.594   3.403  0.0000  0.0000  0.0000
   27MPD2  HN26  396  -0.624   1.659   3.655  0.0000  0.0000  0.0000
   27MPD2  HN27  397  -0.383   1.300   3.495  0.0000  0.0000  0.0000
   27MPD2  NB28  398  -0.672   1.681   3.569  0.0000  0.0000  0.0000
   27MPD2  NB29  399  -0.436   1.284   3.410  0.0000  0.0000  0.0000
   28MPD1   CA1  400   0.263   3.324   2.825  0.0000  0.0000  0.0000
   28MPD1   CA2  401   0.239   3.414   2.932  0.0000  0.0000  0.0000
   28MPD1   CA3  402   0.117   3.476   2.949  0.0000  0.0000  0.0000
   28MPD1   CA4  403   0.013   3.451   2.858  0.0000  0.0000  0.0000
   28MPD1   CA5  404   0.038   3.378   2.746  0.0000  0.0000  0.0000
   28MPD1   CA6  405   0.159   3.301   2.733  0.0000  0.0000  0.0000
   28MPD1  HA10  406   0.170   3.234   2.649  0.0000  0.0000  0.0000
   28MPD1   HA7  407   0.315   3.444   3.004  0.0000  0.0000  0.0000
   28MPD1   HA8  408  -0.082   3.501   2.877  0.0000  0.0000  0.0000
   28MPD1   HA9  409  -0.041   3.364   2.672  0.0000  0.0000  0.0000
   28MPD1  HN11  410   0.387   3.171   2.742  0.0000  0.0000  0.0000
   28MPD1  HN12  411   0.171   3.559   3.132  0.0000  0.0000  0.0000
   28MPD1  HN13  412   0.010   3.551   3.108  0.0000  0.0000  0.0000
   28MPD1  NB14  413   0.387   3.249   2.808  0.0000  0.0000  0.0000
   28MPD1  NH15  414   0.099   3.560   3.061  0.0000  0.0000  0.0000
   29MPD1   CA1  415   3.157   2.086   2.331  0.0000  0.0000  0.0000
   29MPD1   CA2  416   3.108   2.219   2.305  0.0000  0.0000  0.0000
   29MPD1   CA3  417   3.024   2.295   2.395  0.0000  0.0000  0.0000
   29MPD1   CA4  418   3.010   2.233   2.523  0.0000  0.0000  0.0000
   29MPD1   CA5  419   3.070   2.116   2.555  0.0000  0.0000  0.0000
   29MPD1   CA6  420   3.143   2.041   2.461  0.0000  0.0000  0.0000
   29MPD1  HA10  421   3.189   1.950   2.497  0.0000  0.0000  0.0000
   29MPD1   HA7  422   3.123   2.259   2.205  0.0000  0.0000  0.0000
   29MPD1   HA8  423   2.958   2.287   2.602  0.0000  0.0000  0.0000
   29MPD1   HA9  424   3.043   2.071   2.650  0.0000  0.0000  0.0000
   29MPD1  HN11  425   3.328   2.067   2.217  0.0000  0.0000  0.0000
   29MPD1  HN12  426   3.025   2.470   2.293  0.0000  0.0000  0.0000
   29MPD1  HN13  427   2.934   2.471   2.439  0.0000  0.0000  0.0000
   29MPD1  NB14  428   3.244   2.018   2.244  0.0000  0.0000  0.0000
   29MPD1  NH15  429   2.981   2.417   2.367  0.0000  0.0000  0.0000
   30MPD2  CA16  430   0.879   1.695   3.082  0.0000  0.0000  0.0000
   30MPD2  CA17  431   0.893   1.806   2.989  0.0000  0.0000  0.0000
   30MPD2  CA18  432   0.950   1.927   3.040  0.0000  0.0000  0.0000
   30MPD2  CA19  433   0.981   1.941   3.179  0.0000  0.0000  0.0000
   30MPD2  CA20  434   0.966   1.829   3.261  0.0000  0.0000  0.0000
   30MPD2  CA21  435   0.913   1.707   3.218  0.0000  0.0000  0.0000
   30MPD2  HA22  436   0.858   1.796   2.887  0.0000  0.0000  0.0000
   30MPD2  HA23  437   1.011   2.037   3.218  0.0000  0.0000  0.0000
   30MPD2  HA24  438   0.980   1.841   3.368  0.0000  0.0000  0.0000
   30MPD2  HA25  439   0.900   1.623   3.286  0.0000  0.0000  0.0000
   30MPD2  HN26  440   0.870   1.530   2.956  0.0000  0.0000  0.0000
   30MPD2  HN27  441   0.913   2.126   3.015  0.0000  0.0000  0.0000
   30MPD2  NB28  442   0.818   1.576   3.030  0.0000  0.0000  0.0000
   30MPD2  NB29  443   0.944   2.046   2.962  0.0000  0.0000  0.0000
   31MPD1   CA1  444   2.962   1.781   2.956  0.0000  0.0000  0.0000
   31MPD1   CA2  445   2.838   1.770   3.021  0.0000  0.0000  0.0000
   31MPD1   CA3  446   2.721   1.821   2.961  0.0000  0.0000  0.0000
   31MPD1   CA4  447   2.718   1.864   2.828  0.0000  0.0000  0.0000
   31MPD1   CA5  448   2.839   1.871   2.764  0.0000  0.0000  0.0000
   31MPD1   CA6  449   2.960   1.833   2.824  0.0000  0.0000  0.0000
   31MPD1  HA10  450   3.048   1.825   2.761  0.0000  0.0000  0.0000
   31MPD1   HA7  451   2.833   1.738   3.124  0.0000  0.0000  0.0000
   31MPD1   HA8  452   2.624   1.889   2.779  0.0000  0.0000  0.0000
   31MPD1   HA9  453   2.845   1.896   2.659  0.0000  0.0000  0.0000
   31MPD1  HN11  454   3.126   1.649   2.989  0.0000  0.0000  0.0000
   31MPD1  HN12  455   2.585   1.763   3.108  0.0000  0.0000  0.0000
   31MPD1  HN13  456   2.524   1.878   2.994  0.0000  0.0000  0.0000
   31MPD1  NB14  457   3.083   1.734   3.022  0.0000  0.0000  0.0000
   31MPD1  NH15  458   2.603   1.833   3.038  0.0000  0.0000  0.0000
   32MPD2  CA16  459   0.430  -1.100   3.713  0.0000  0.0000  0.0000
   32MPD2  CA17  460   0.310  -1.030   3.674  0.0000  0.0000  0.0000
   32MPD2  CA18  461   0.191  -1.047   3.743  0.0000  0.0000  0.0000
   32MPD2  CA19  462   0.187  -1.131   3.859  0.0000  0.0000  0.0000
   32MPD2  CA20  463   0.307  -1.197   3.895  0.0000  0.0000  0.0000
   32MPD2  CA21  464   0.423  -1.184   3.822  0.0000  0.0000  0.0000
   32MPD2  HA22  465   0.311  -0.966   3.587  0.0000  0.0000  0.0000
   32MPD2  HA23  466   0.096  -1.133   3.919  0.0000  0.0000  0.0000
   32MPD2  HA24  467   0.307  -1.265   3.980  0.0000  0.0000  0.0000
   32MPD2  HA25  468   0.513  -1.225   3.866  0.0000  0.0000  0.0000
   32MPD2  HN26  469   0.635  -1.075   3.702  0.0000  0.0000  0.0000
   32MPD2  HN27  470   0.010  -1.047   3.654  0.0000  0.0000  0.0000
   32MPD2  NB28  471   0.553  -1.087   3.644  0.0000  0.0000  0.0000
   32MPD2  NB29  472   0.072  -0.985   3.705  0.0000  0.0000  0.0000
   33MPD2  CA16  473   0.324   0.888   3.472  0.0000  0.0000  0.0000
   33MPD2  CA17  474   0.370   0.988   3.562  0.0000  0.0000  0.0000
   33MPD2  CA18  475   0.502   1.039   3.559  0.0000  0.0000  0.0000
   33MPD2  CA19  476   0.591   0.987   3.464  0.0000  0.0000  0.0000
   33MPD2  CA20  477   0.538   0.901   3.365  0.0000  0.0000  0.0000
   33MPD2  CA21  478   0.412   0.848   3.375  0.0000  0.0000  0.0000
   33MPD2  HA22  479   0.306   1.017   3.645  0.0000  0.0000  0.0000
   33MPD2  HA23  480   0.697   1.012   3.459  0.0000  0.0000  0.0000
   33MPD2  HA24  481   0.603   0.863   3.287  0.0000  0.0000  0.0000
   33MPD2  HA25  482   0.383   0.773   3.302  0.0000  0.0000  0.0000
   33MPD2  HN26  483   0.180   0.786   3.587  0.0000  0.0000  0.0000
   33MPD2  HN27  484   0.617   1.208   3.629  0.0000  0.0000  0.0000
   33MPD2  NB28  485   0.202   0.814   3.492  0.0000  0.0000  0.0000
   33MPD2  NB29  486   0.560   1.129   3.658  0.0000  0.0000  0.0000
   34MPD2  CA16  487   2.641   2.249   3.070  0.0000  0.0000  0.0000
   34MPD2  CA17  488   2.769   2.200   3.096  0.0000  0.0000  0.0000
   34MPD2  CA18  489   2.869   2.178   3.002  0.0000  0.0000  0.0000
   34MPD2  CA19  490   2.835   2.201   2.863  0.0000  0.0000  0.0000
   34MPD2  CA20  491   2.718   2.262   2.833  0.0000  0.0000  0.0000
   34MPD2  CA21  492   2.620   2.287   2.933  0.0000  0.0000  0.0000
   34MPD2  HA22  493   2.792   2.187   3.201  0.0000  0.0000  0.0000
   34MPD2  HA23  494   2.901   2.165   2.784  0.0000  0.0000  0.0000
   34MPD2  HA24  495   2.702   2.297   2.732  0.0000  0.0000  0.0000
   34MPD2  HA25  496   2.533   2.344   2.902  0.0000  0.0000  0.0000
   34MPD2  HN26  497   2.603   2.282   3.268  0.0000  0.0000  0.0000
   34MPD2  HN27  498   3.003   2.044   3.104  0.0000  0.0000  0.0000
   34MPD2  NB28  499   2.556   2.275   3.178  0.0000  0.0000  0.0000
   34MPD2  NB29  500   2.995   2.121   3.039  0.0000  0.0000  0.0000
   35MPD2  CA16  501   0.682  -0.884   4.376  0.0000  0.0000  0.0000
   35MPD2  CA17  502   0.611  -0.852   4.258  0.0000  0.0000  0.0000
   35MPD2  CA18  503   0.541  -0.732   4.252  0.0000  0.0000  0.0000
   35MPD2  CA19  504   0.537  -0.637   4.359  0.0000  0.0000  0.0000
   35MPD2  CA20  505   0.619  -0.662   4.470  0.0000  0.0000  0.0000
   35MPD2  CA21  506   0.681  -0.787   4.482  0.0000  0.0000  0.0000
   35MPD2  HA22  507   0.598  -0.932   4.185  0.0000  0.0000  0.0000
   35MPD2  HA23  508   0.481  -0.546   4.339  0.0000  0.0000  0.0000
   35MPD2  HA24  509   0.615  -0.597   4.557  0.0000  0.0000  0.0000
   35MPD2  HA25  510   0.729  -0.816   4.575  0.0000  0.0000  0.0000
   35MPD2  HN26  511   0.771  -1.031   4.486  0.0000  0.0000  0.0000
   35MPD2  HN27  512   0.521  -0.639   4.069  0.0000  0.0000  0.0000
   35MPD2  NB28  513   0.761  -1.002   4.389  0.0000  0.0000  0.0000
   35MPD2  NB29  514   0.472  -0.703   4.130  0.0000  0.0000  0.0000
   36MPD1   CA1  515   2.237   2.656   1.806  0.0000  0.0000  0.0000
   36MPD1   CA2  516   2.377   2.613   1.815  0.0000  0.0000  0.0000
   36MPD1   CA3  517   2.485   2.680   1.756  0.0000  0.0000  0.0000
   36MPD1   CA4  518   2.456   2.798   1.692  0.0000  0.0000  0.0000
   36MPD1   CA5  519   2.324   2.844   1.688  0.0000  0.0000  0.0000
   36MPD1   CA6  520   2.209   2.777   1.744  0.0000  0.0000  0.0000
   36MPD1  HA10  521   2.112   2.823   1.732  0.0000  0.0000  0.0000
   36MPD1   HA7  522   2.389   2.514   1.858  0.0000  0.0000  0.0000
   36MPD1   HA8  523   2.538   2.856   1.650  0.0000  0.0000  0.0000
   36MPD1   HA9  524   2.309   2.939   1.638  0.0000  0.0000  0.0000
   36MPD1  HN11  525   2.170   2.517   1.942  0.0000  0.0000  0.0000
   36MPD1  HN12  526   2.639   2.543   1.810  0.0000  0.0000  0.0000
   36MPD1  HN13  527   2.699   2.695   1.746  0.0000  0.0000  0.0000
   36MPD1  NB14  528   2.137   2.576   1.866  0.0000  0.0000  0.0000
   36MPD1  NH15  529   2.622   2.631   1.763  0.0000  0.0000  0.0000
   37MPD2  CA16  530   0.649   2.360   2.583  0.0000  0.0000  0.0000
   37MPD2  CA17  531   0.628   2.480   2.648  0.0000  0.0000  0.0000
   37MPD2  CA18  532   0.716   2.588   2.636  0.0000  0.0000  0.0000
   37MPD2  CA19  533   0.819   2.571   2.544  0.0000  0.0000  0.0000
   37MPD2  CA20  534   0.844   2.455   2.476  0.0000  0.0000  0.0000
   37MPD2  CA21  535   0.757   2.353   2.499  0.0000  0.0000  0.0000
   37MPD2  HA22  536   0.540   2.479   2.713  0.0000  0.0000  0.0000
   37MPD2  HA23  537   0.893   2.650   2.535  0.0000  0.0000  0.0000
   37MPD2  HA24  538   0.916   2.438   2.397  0.0000  0.0000  0.0000
   37MPD2  HA25  539   0.769   2.260   2.444  0.0000  0.0000  0.0000
   37MPD2  HN26  540   0.468   2.287   2.584  0.0000  0.0000  0.0000
   37MPD2  HN27  541   0.790   2.715   2.776  0.0000  0.0000  0.0000
   37MPD2  NB28  542   0.563   2.251   2.593  0.0000  0.0000  0.0000
   37MPD2  NB29  543   0.710   2.697   2.716  0.0000  0.0000  0.0000
   38MPD2  CA16  544  -0.131  -0.540   2.088  0.0000  0.0000  0.0000
   38MPD2  CA17  545  -0.050  -0.605   2.185  0.0000  0.0000  0.0000
   38MPD2  CA18  546  -0.054  -0.571   2.326  0.0000  0.0000  0.0000
   38MPD2  CA19  547  -0.126  -0.456   2.353  0.0000  0.0000  0.0000
   38MPD2  CA20  548  -0.193  -0.385   2.252  0.0000  0.0000  0.0000
   38MPD2  CA21  549  -0.196  -0.423   2.122  0.0000  0.0000  0.0000
   38MPD2  HA22  550   0.007  -0.694   2.159  0.0000  0.0000  0.0000
   38MPD2  HA23  551  -0.126  -0.413   2.452  0.0000  0.0000  0.0000
   38MPD2  HA24  552  -0.243  -0.291   2.272  0.0000  0.0000  0.0000
   38MPD2  HA25  553  -0.248  -0.363   2.048  0.0000  0.0000  0.0000
   38MPD2  HN26  554  -0.176  -0.668   1.929  0.0000  0.0000  0.0000
   38MPD2  HN27  555   0.011  -0.599   2.515  0.0000  0.0000  0.0000
   38MPD2  NB28  556  -0.127  -0.580   1.945  0.0000  0.0000  0.0000
   38MPD2  NB29  557  -0.006  -0.652   2.430  0.0000  0.0000  0.0000
   39MPD2  CA16  558  -0.716   0.924   2.044  0.0000  0.0000  0.0000
   39MPD2  CA17  559  -0.733   1.064   2.039  0.0000  0.0000  0.0000
   39MPD2  CA18  560  -0.637   1.152   1.990  0.0000  0.0000  0.0000
   39MPD2  CA19  561  -0.523   1.092   1.942  0.0000  0.0000  0.0000
   39MPD2  CA20  562  -0.497   0.958   1.956  0.0000  0.0000  0.0000
   39MPD2  CA21  563  -0.596   0.868   2.001  0.0000  0.0000  0.0000
   39MPD2  HA22  564  -0.827   1.110   2.069  0.0000  0.0000  0.0000
   39MPD2  HA23  565  -0.454   1.166   1.901  0.0000  0.0000  0.0000
   39MPD2  HA24  566  -0.401   0.911   1.939  0.0000  0.0000  0.0000
   39MPD2  HA25  567  -0.574   0.763   2.020  0.0000  0.0000  0.0000
   39MPD2  HN26  568  -0.889   0.828   1.983  0.0000  0.0000  0.0000
   39MPD2  HN27  569  -0.673   1.333   1.911  0.0000  0.0000  0.0000
   39MPD2  NB28  570  -0.828   0.838   2.063  0.0000  0.0000  0.0000
   39MPD2  NB29  571  -0.649   1.291   2.000  0.0000  0.0000  0.0000
   40MPD1   CA1  572   0.451   0.538   3.990  0.0000  0.0000  0.0000
   40MPD1   CA2  573   0.397   0.491   4.105  0.0000  0.0000  0.0000
   40MPD1   CA3  574   0.410   0.551   4.235  0.0000  0.0000  0.0000
   40MPD1   CA4  575   0.474   0.674   4.241  0.0000  0.0000  0.0000
   40MPD1   CA5  576   0.521   0.734   4.124  0.0000  0.0000  0.0000
   40MPD1   CA6  577   0.510   0.668   3.999  0.0000  0.0000  0.0000
   40MPD1  HA10  578   0.532   0.727   3.909  0.0000  0.0000  0.0000
   40MPD1   HA7  579   0.351   0.392   4.100  0.0000  0.0000  0.0000
   40MPD1   HA8  580   0.497   0.726   4.334  0.0000  0.0000  0.0000
   40MPD1   HA9  581   0.565   0.833   4.131  0.0000  0.0000  0.0000
   40MPD1  HN11  582   0.464   0.371   3.863  0.0000  0.0000  0.0000
   40MPD1  HN12  583   0.332   0.573   4.415  0.0000  0.0000  0.0000
   40MPD1  HN13  584   0.284   0.430   4.335  0.0000  0.0000  0.0000
   40MPD1  NB14  585   0.438   0.469   3.867  0.0000  0.0000  0.0000
   40MPD1  NH15  586   0.358   0.497   4.353  0.0000  0.0000  0.0000
   41MPD2  CA16  587   3.634   1.673   3.671  0.0000  0.0000  0.0000
   41MPD2  CA17  588   3.719   1.564   3.692  0.0000  0.0000  0.0000
   41MPD2  CA18  589   3.790   1.544   3.810  0.0000  0.0000  0.0000
   41MPD2  CA19  590   3.796   1.652   3.903  0.0000  0.0000  0.0000
   41MPD2  CA20  591   3.717   1.772   3.881  0.0000  0.0000  0.0000
   41MPD2  CA21  592   3.642   1.785   3.761  0.0000  0.0000  0.0000
   41MPD2  HA22  593   3.712   1.484   3.618  0.0000  0.0000  0.0000
   41MPD2  HA23  594   3.868   1.646   3.984  0.0000  0.0000  0.0000
   41MPD2  HA24  595   3.724   1.856   3.950  0.0000  0.0000  0.0000
   41MPD2  HA25  596   3.582   1.874   3.743  0.0000  0.0000  0.0000
   41MPD2  HN26  597   3.499   1.570   3.552  0.0000  0.0000  0.0000
   41MPD2  HN27  598   3.937   1.436   3.905  0.0000  0.0000  0.0000
   41MPD2  NB28  599   3.542   1.662   3.558  0.0000  0.0000  0.0000
   41MPD2  NB29  600   3.866   1.427   3.834  0.0000  0.0000  0.0000
   42MPD2  CA16  601   1.179   2.238   2.254  0.0000  0.0000  0.0000
   42MPD2  CA17  602   1.315   2.257   2.237  0.0000  0.0000  0.0000
   42MPD2  CA18  603   1.382   2.245   2.111  0.0000  0.0000  0.0000
   42MPD2  CA19  604   1.308   2.190   2.012  0.0000  0.0000  0.0000
   42MPD2  CA20  605   1.174   2.166   2.025  0.0000  0.0000  0.0000
   42MPD2  CA21  606   1.109   2.187   2.145  0.0000  0.0000  0.0000
   42MPD2  HA22  607   1.371   2.299   2.319  0.0000  0.0000  0.0000
   42MPD2  HA23  608   1.359   2.166   1.919  0.0000  0.0000  0.0000
   42MPD2  HA24  609   1.117   2.137   1.937  0.0000  0.0000  0.0000
   42MPD2  HA25  610   1.001   2.188   2.150  0.0000  0.0000  0.0000
   42MPD2  HN26  611   1.049   2.194   2.400  0.0000  0.0000  0.0000
   42MPD2  HN27  612   1.576   2.263   2.191  0.0000  0.0000  0.0000
   42MPD2  NB28  613   1.119   2.264   2.379  0.0000  0.0000  0.0000
   42MPD2  NB29  614   1.526   2.277   2.104  0.0000  0.0000  0.0000
   43MPD1   CA1  615   0.489   1.540   2.337  0.0000  0.0000  0.0000
   43MPD1   CA2  616   0.585   1.539   2.233  0.0000  0.0000  0.0000
   43MPD1   CA3  617   0.634   1.417   2.181  0.0000  0.0000  0.0000
   43MPD1   CA4  618   0.587   1.299   2.233  0.0000  0.0000  0.0000
   43MPD1   CA5  619   0.494   1.305   2.336  0.0000  0.0000  0.0000
   43MPD1   CA6  620   0.440   1.422   2.386  0.0000  0.0000  0.0000
   43MPD1  HA10  621   0.372   1.421   2.470  0.0000  0.0000  0.0000
   43MPD1   HA7  622   0.623   1.627   2.182  0.0000  0.0000  0.0000
   43MPD1   HA8  623   0.623   1.203   2.199  0.0000  0.0000  0.0000
   43MPD1   HA9  624   0.464   1.206   2.370  0.0000  0.0000  0.0000
   43MPD1  HN11  625   0.517   1.733   2.376  0.0000  0.0000  0.0000
   43MPD1  HN12  626   0.773   1.329   2.053  0.0000  0.0000  0.0000
   43MPD1  HN13  627   0.715   1.481   1.995  0.0000  0.0000  0.0000
   43MPD1  NB14  628   0.449   1.660   2.396  0.0000  0.0000  0.0000
   43MPD1  NH15  629   0.720   1.413   2.070  0.0000  0.0000  0.0000
   44MPD2  CA16  630  -0.383   2.061   2.609  0.0000  0.0000  0.0000
   44MPD2  CA17  631  -0.322   2.186   2.632  0.0000  0.0000  0.0000
   44MPD2  CA18  632  -0.399   2.302   2.643  0.0000  0.0000  0.0000
   44MPD2  CA19  633  -0.540   2.293   2.620  0.0000  0.0000  0.0000
   44MPD2  CA20  634  -0.596   2.168   2.596  0.0000  0.0000  0.0000
   44MPD2  CA21  635  -0.520   2.049   2.588  0.0000  0.0000  0.0000
   44MPD2  HA22  636  -0.214   2.191   2.643  0.0000  0.0000  0.0000
   44MPD2  HA23  637  -0.600   2.382   2.634  0.0000  0.0000  0.0000
   44MPD2  HA24  638  -0.704   2.161   2.588  0.0000  0.0000  0.0000
   44MPD2  HA25  639  -0.563   1.949   2.584  0.0000  0.0000  0.0000
   44MPD2  HN26  640  -0.365   1.864   2.615  0.0000  0.0000  0.0000
   44MPD2  HN27  641  -0.254   2.442   2.589  0.0000  0.0000  0.0000
   44MPD2  NB28  642  -0.306   1.944   2.592  0.0000  0.0000  0.0000
   44MPD2  NB29  643  -0.321   2.418   2.661  0.0000  0.0000  0.0000
   45MPD2  CA16  644   1.766  -0.724   2.837  0.0000  0.0000  0.0000
   45MPD2  CA17  645   1.811  -0.599   2.889  0.0000  0.0000  0.0000
   45MPD2  CA18  646   1.737  -0.520   2.983  0.0000  0.0000  0.0000
   45MPD2  CA19  647   1.607  -0.560   3.021  0.0000  0.0000  0.0000
   45MPD2  CA20  648   1.560  -0.682   2.969  0.0000  0.0000  0.0000
   45MPD2  CA21  649   1.632  -0.752   2.873  0.0000  0.0000  0.0000
   45MPD2  HA22  650   1.911  -0.568   2.860  0.0000  0.0000  0.0000
   45MPD2  HA23  651   1.534  -0.500   3.074  0.0000  0.0000  0.0000
   45MPD2  HA24  652   1.462  -0.709   3.009  0.0000  0.0000  0.0000
   45MPD2  HA25  653   1.576  -0.834   2.829  0.0000  0.0000  0.0000
   45MPD2  HN26  654   1.806  -0.789   2.640  0.0000  0.0000  0.0000
   45MPD2  HN27  655   1.828  -0.363   2.926  0.0000  0.0000  0.0000
   45MPD2  NB28  656   1.836  -0.796   2.737  0.0000  0.0000  0.0000
   45MPD2  NB29  657   1.781  -0.392   3.011  0.0000  0.0000  0.0000
   46MPD2  CA16  658   3.372   1.477   2.390  0.0000  0.0000  0.0000
   46MPD2  CA17  659   3.432   1.491   2.267  0.0000  0.0000  0.0000
   46MPD2  CA18  660   3.394   1.411   2.155  0.0000  0.0000  0.0000
   46MPD2  CA19  661   3.283   1.331   2.162  0.0000  0.0000  0.0000
   46MPD2  CA20  662   3.210   1.327   2.282  0.0000  0.0000  0.0000
   46MPD2  CA21  663   3.249   1.407   2.389  0.0000  0.0000  0.0000
   46MPD2  HA22  664   3.524   1.548   2.254  0.0000  0.0000  0.0000
   46MPD2  HA23  665   3.246   1.272   2.079  0.0000  0.0000  0.0000
   46MPD2  HA24  666   3.122   1.263   2.290  0.0000  0.0000  0.0000
   46MPD2  HA25  667   3.193   1.402   2.481  0.0000  0.0000  0.0000
   46MPD2  HN26  668   3.413   1.653   2.494  0.0000  0.0000  0.0000
   46MPD2  HN27  669   3.482   1.333   1.981  0.0000  0.0000  0.0000
   46MPD2  NB28  670   3.407   1.553   2.509  0.0000  0.0000  0.0000
   46MPD2  NB29  671   3.459   1.419   2.030  0.0000  0.0000  0.0000
   47MPD2  CA16  672  -0.132   2.246   3.083  0.0000  0.0000  0.0000
   47MPD2  CA17  673  -0.075   2.224   2.954  0.0000  0.0000  0.0000
   47MPD2  CA18  674   0.056   2.186   2.943  0.0000  0.0000  0.0000
   47MPD2  CA19  675   0.132   2.164   3.056  0.0000  0.0000  0.0000
   47MPD2  CA20  676   0.079   2.188   3.184  0.0000  0.0000  0.0000
   47MPD2  CA21  677  -0.050   2.234   3.201  0.0000  0.0000  0.0000
   47MPD2  HA22  678  -0.134   2.247   2.866  0.0000  0.0000  0.0000
   47MPD2  HA23  679   0.231   2.121   3.045  0.0000  0.0000  0.0000
   47MPD2  HA24  680   0.142   2.169   3.271  0.0000  0.0000  0.0000
   47MPD2  HA25  681  -0.089   2.250   3.301  0.0000  0.0000  0.0000
   47MPD2  HN26  682  -0.279   2.383   3.123  0.0000  0.0000  0.0000
   47MPD2  HN27  683   0.191   2.207   2.785  0.0000  0.0000  0.0000
   47MPD2  NB28  684  -0.268   2.285   3.098  0.0000  0.0000  0.0000
   47MPD2  NB29  685   0.117   2.150   2.824  0.0000  0.0000  0.0000
   48MPD1   CA1  686   2.808  -0.197   2.538  0.0000  0.0000  0.0000
   48MPD1   CA2  687   2.865  -0.119   2.434  0.0000  0.0000  0.0000
   48MPD1   CA3  688   2.874   0.023   2.447  0.0000  0.0000  0.0000
   48MPD1   CA4  689   2.821   0.088   2.563  0.0000  0.0000  0.0000
   48MPD1   CA5  690   2.764   0.009   2.666  0.0000  0.0000  0.0000
   48MPD1   CA6  691   2.757  -0.130   2.648  0.0000  0.0000  0.0000
   48MPD1  HA10  692   2.694  -0.179   2.721  0.0000  0.0000  0.0000
   48MPD1   HA7  693   2.896  -0.168   2.342  0.0000  0.0000  0.0000
   48MPD1   HA8  694   2.808   0.196   2.566  0.0000  0.0000  0.0000
   48MPD1   HA9  695   2.711   0.055   2.749  0.0000  0.0000  0.0000
   48MPD1  HN11  696   2.884  -0.387   2.560  0.0000  0.0000  0.0000
   48MPD1  HN12  697   3.012   0.057   2.322  0.0000  0.0000  0.0000
   48MPD1  HN13  698   2.905   0.192   2.346  0.0000  0.0000  0.0000
   48MPD1  NB14  699   2.802  -0.340   2.524  0.0000  0.0000  0.0000
   48MPD1  NH15  700   2.919   0.092   2.336  0.0000  0.0000  0.0000
   49MPD2  CA16  701   2.309   2.152   2.581  0.0000  0.0000  0.0000
   49MPD2  CA17  702   2.222   2.169   2.475  0.0000  0.0000  0.0000
   49MPD2  CA18  703   2.225   2.288   2.403  0.0000  0.0000  0.0000
   49MPD2  CA19  704   2.307   2.394   2.443  0.0000  0.0000  0.0000
   49MPD2  CA20  705   2.386   2.383   2.553  0.0000  0.0000  0.0000
   49MPD2  CA21  706   2.395   2.256   2.618  0.0000  0.0000  0.0000
   49MPD2  HA22  707   2.160   2.088   2.438  0.0000  0.0000  0.0000
   49MPD2  HA23  708   2.300   2.492   2.395  0.0000  0.0000  0.0000
   49MPD2  HA24  709   2.457   2.462   2.574  0.0000  0.0000  0.0000
   49MPD2  HA25  710   2.470   2.236   2.693  0.0000  0.0000  0.0000
   49MPD2  HN26  711   2.322   1.942   2.578  0.0000  0.0000  0.0000
   49MPD2  HN27  712   2.173   2.371   2.224  0.0000  0.0000  0.0000
   49MPD2  NB28  713   2.315   2.021   2.641  0.0000  0.0000  0.0000
   49MPD2  NB29  714   2.135   2.310   2.295  0.0000  0.0000  0.0000
   50MPD1   CA1  715   0.428  -0.746   2.155  0.0000  0.0000  0.0000
   50MPD1   CA2  716   0.563  -0.743   2.156  0.0000  0.0000  0.0000
   50MPD1   CA3  717   0.627  -0.843   2.231  0.0000  0.0000  0.0000
   50MPD1   CA4  718   0.552  -0.935   2.305  0.0000  0.0000  0.0000
   50MPD1   CA5  719   0.417  -0.952   2.285  0.0000  0.0000  0.0000
   50MPD1   CA6  720   0.354  -0.846   2.217  0.0000  0.0000  0.0000
   50MPD1  HA10  721   0.245  -0.850   2.213  0.0000  0.0000  0.0000
   50MPD1   HA7  722   0.620  -0.662   2.112  0.0000  0.0000  0.0000
   50MPD1   HA8  723   0.604  -1.015   2.358  0.0000  0.0000  0.0000
   50MPD1   HA9  724   0.363  -1.035   2.329  0.0000  0.0000  0.0000
   50MPD1  HN11  725   0.255  -0.687   2.064  0.0000  0.0000  0.0000
   50MPD1  HN12  726   0.818  -0.752   2.228  0.0000  0.0000  0.0000
   50MPD1  HN13  727   0.809  -0.901   2.311  0.0000  0.0000  0.0000
   50MPD1  NB14  728   0.346  -0.650   2.090  0.0000  0.0000  0.0000
   50MPD1  NH15  729   0.764  -0.835   2.249  0.0000  0.0000  0.0000
   51MPD2  CA16  730   3.078  -0.353   2.716  0.0000  0.0000  0.0000
   51MPD2  CA17  731   3.124  -0.467   2.646  0.0000  0.0000  0.0000
   51MPD2  CA18  732   3.083  -0.602   2.668  0.0000  0.0000  0.0000
   51MPD2  CA19  733   2.976  -0.618   2.761  0.0000  0.0000  0.0000
   51MPD2  CA20  734   2.919  -0.505   2.824  0.0000  0.0000  0.0000
   51MPD2  CA21  735   2.974  -0.376   2.813  0.0000  0.0000  0.0000
   51MPD2  HA22  736   3.194  -0.460   2.562  0.0000  0.0000  0.0000
   51MPD2  HA23  737   2.932  -0.715   2.782  0.0000  0.0000  0.0000
   51MPD2  HA24  738   2.829  -0.513   2.884  0.0000  0.0000  0.0000
   51MPD2  HA25  739   2.903  -0.302   2.850  0.0000  0.0000  0.0000
   51MPD2  HN26  740   3.059  -0.146   2.705  0.0000  0.0000  0.0000
   51MPD2  HN27  741   3.214  -0.725   2.611  0.0000  0.0000  0.0000
   51MPD2  NB28  742   3.121  -0.223   2.682  0.0000  0.0000  0.0000
   51MPD2  NB29  743   3.122  -0.699   2.579  0.0000  0.0000  0.0000
   52MPD2  CA16  744   1.395   2.580   3.284  0.0000  0.0000  0.0000
   52MPD2  CA17  745   1.518   2.550   3.217  0.0000  0.0000  0.0000
   52MPD2  CA18  746   1.612   2.648   3.177  0.0000  0.0000  0.0000
   52MPD2  CA19  747   1.582   2.781   3.219  0.0000  0.0000  0.0000
   52MPD2  CA20  748   1.469   2.810   3.298  0.0000  0.0000  0.0000
   52MPD2  CA21  749   1.375   2.712   3.322  0.0000  0.0000  0.0000
   52MPD2  HA22  750   1.532   2.443   3.200  0.0000  0.0000  0.0000
   52MPD2  HA23  751   1.640   2.869   3.195  0.0000  0.0000  0.0000
   52MPD2  HA24  752   1.447   2.911   3.330  0.0000  0.0000  0.0000
   52MPD2  HA25  753   1.292   2.747   3.383  0.0000  0.0000  0.0000
   52MPD2  HN26  754   1.282   2.407   3.235  0.0000  0.0000  0.0000
   52MPD2  HN27  755   1.714   2.544   3.021  0.0000  0.0000  0.0000
   52MPD2  NB28  756   1.306   2.471   3.308  0.0000  0.0000  0.0000
   52MPD2  NB29  757   1.725   2.609   3.098  0.0000  0.0000  0.0000
   53MPD2  CA16  758   0.688   1.821   3.937  0.0000  0.0000  0.0000
   53MPD2  CA17  759   0.779   1.876   3.846  0.0000  0.0000  0.0000
   53MPD2  CA18  760   0.791   2.018   3.827  0.0000  0.0000  0.0000
   53MPD2  CA19  761   0.714   2.099   3.910  0.0000  0.0000  0.0000
   53MPD2  CA20  762   0.630   2.042   4.008  0.0000  0.0000  0.0000
   53MPD2  CA21  763   0.616   1.909   4.022  0.0000  0.0000  0.0000
   53MPD2  HA22  764   0.836   1.804   3.789  0.0000  0.0000  0.0000
   53MPD2  HA23  765   0.722   2.206   3.899  0.0000  0.0000  0.0000
   53MPD2  HA24  766   0.587   2.107   4.085  0.0000  0.0000  0.0000
   53MPD2  HA25  767   0.562   1.862   4.103  0.0000  0.0000  0.0000
   53MPD2  HN26  768   0.624   1.657   4.055  0.0000  0.0000  0.0000
   53MPD2  HN27  769   0.963   1.995   3.735  0.0000  0.0000  0.0000
   53MPD2  NB28  770   0.661   1.680   3.964  0.0000  0.0000  0.0000
   53MPD2  NB29  771   0.890   2.065   3.734  0.0000  0.0000  0.0000
   54MPD1   CA1  772   0.700  -0.686   3.682  0.0000  0.0000  0.0000
   54MPD1   CA2  773   0.820  -0.666   3.754  0.0000  0.0000  0.0000
   54MPD1   CA3  774   0.844  -0.734   3.872  0.0000  0.0000  0.0000
   54MPD1   CA4  775   0.737  -0.816   3.932  0.0000  0.0000  0.0000
   54MPD1   CA5  776   0.622  -0.828   3.858  0.0000  0.0000  0.0000
   54MPD1   CA6  777   0.606  -0.769   3.735  0.0000  0.0000  0.0000
   54MPD1  HA10  778   0.511  -0.780   3.683  0.0000  0.0000  0.0000
   54MPD1   HA7  779   0.895  -0.596   3.718  0.0000  0.0000  0.0000
   54MPD1   HA8  780   0.743  -0.853   4.033  0.0000  0.0000  0.0000
   54MPD1   HA9  781   0.541  -0.883   3.905  0.0000  0.0000  0.0000
   54MPD1  HN11  782   0.738  -0.526   3.564  0.0000  0.0000  0.0000
   54MPD1  HN12  783   1.028  -0.652   3.922  0.0000  0.0000  0.0000
   54MPD1  HN13  784   0.964  -0.766   4.040  0.0000  0.0000  0.0000
   54MPD1  NB14  785   0.688  -0.614   3.565  0.0000  0.0000  0.0000
   54MPD1  NH15  786   0.959  -0.720   3.950  0.0000  0.0000  0.0000
   55MPD2  CA16  787   0.033   1.712   3.112  0.0000  0.0000  0.0000
   55MPD2  CA17  788   0.146   1.701   3.027  0.0000  0.0000  0.0000
   55MPD2  CA18  789   0.249   1.606   3.062  0.0000  0.0000  0.0000
   55MPD2  CA19  790   0.233   1.540   3.187  0.0000  0.0000  0.0000
   55MPD2  CA20  791   0.122   1.551   3.270  0.0000  0.0000  0.0000
   55MPD2  CA21  792   0.021   1.633   3.228  0.0000  0.0000  0.0000
   55MPD2  HA22  793   0.145   1.756   2.933  0.0000  0.0000  0.0000
   55MPD2  HA23  794   0.307   1.462   3.207  0.0000  0.0000  0.0000
   55MPD2  HA24  795   0.105   1.494   3.361  0.0000  0.0000  0.0000
   55MPD2  HA25  796  -0.075   1.631   3.278  0.0000  0.0000  0.0000
   55MPD2  HN26  797  -0.109   1.871   3.129  0.0000  0.0000  0.0000
   55MPD2  HN27  798   0.369   1.466   2.982  0.0000  0.0000  0.0000
   55MPD2  NB28  799  -0.079   1.793   3.072  0.0000  0.0000  0.0000
   55MPD2  NB29  800   0.350   1.565   2.973  0.0000  0.0000  0.0000
   56MPD2  CA16  801   0.173   0.366   1.817  0.0000  0.0000  0.0000
   56MPD2  CA17  802   0.170   0.231   1.863  0.0000  0.0000  0.0000
   56MPD2  CA18  803   0.119   0.125   1.775  0.0000  0.0000  0.0000
   56MPD2  CA19  804   0.061   0.161   1.654  0.0000  0.0000  0.0000
   56MPD2  CA20  805   0.063   0.291   1.614  0.0000  0.0000  0.0000
   56MPD2  CA21  806   0.114   0.396   1.694  0.0000  0.0000  0.0000
   56MPD2  HA22  807   0.214   0.201   1.957  0.0000  0.0000  0.0000
   56MPD2  HA23  808   0.020   0.084   1.589  0.0000  0.0000  0.0000
   56MPD2  HA24  809   0.014   0.312   1.519  0.0000  0.0000  0.0000
   56MPD2  HA25  810   0.124   0.496   1.653  0.0000  0.0000  0.0000
   56MPD2  HN26  811   0.185   0.557   1.897  0.0000  0.0000  0.0000
   56MPD2  HN27  812   0.018  -0.045   1.793  0.0000  0.0000  0.0000
   56MPD2  NB28  813   0.237   0.470   1.896  0.0000  0.0000  0.0000
   56MPD2  NB29  814   0.108  -0.005   1.817  0.0000  0.0000  0.0000
   57MPD2  CA16  815   1.450   0.038   2.308  0.0000  0.0000  0.0000
   57MPD2  CA17  816   1.316   0.006   2.335  0.0000  0.0000  0.0000
   57MPD2  CA18  817   1.280  -0.113   2.405  0.0000  0.0000  0.0000
   57MPD2  CA19  818   1.372  -0.205   2.439  0.0000  0.0000  0.0000
   57MPD2  CA20  819   1.509  -0.170   2.418  0.0000  0.0000  0.0000
   57MPD2  CA21  820   1.550  -0.053   2.353  0.0000  0.0000  0.0000
   57MPD2  HA22  821   1.235   0.076   2.315  0.0000  0.0000  0.0000
   57MPD2  HA23  822   1.344  -0.305   2.472  0.0000  0.0000  0.0000
   57MPD2  HA24  823   1.585  -0.236   2.458  0.0000  0.0000  0.0000
   57MPD2  HA25  824   1.658  -0.039   2.344  0.0000  0.0000  0.0000
   57MPD2  HN26  825   1.535   0.157   2.164  0.0000  0.0000  0.0000
   57MPD2  HN27  826   1.129  -0.247   2.460  0.0000  0.0000  0.0000
   57MPD2  NB28  827   1.490   0.160   2.255  0.0000  0.0000  0.0000
   57MPD2  NB29  828   1.144  -0.150   2.436  0.0000  0.0000  0.0000
   58MPD2  CA16  829   1.797   0.006   1.984  0.0000  0.0000  0.0000
   58MPD2  CA17  830   1.856   0.137   1.990  0.0000  0.0000  0.0000
   58MPD2  CA18  831   1.794   0.250   1.947  0.0000  0.0000  0.0000
   58MPD2  CA19  832   1.669   0.232   1.881  0.0000  0.0000  0.0000
   58MPD2  CA20  833   1.608   0.107   1.887  0.0000  0.0000  0.0000
   58MPD2  CA21  834   1.667  -0.004   1.944  0.0000  0.0000  0.0000
   58MPD2  HA22  835   1.963   0.142   2.006  0.0000  0.0000  0.0000
   58MPD2  HA23  836   1.625   0.308   1.816  0.0000  0.0000  0.0000
   58MPD2  HA24  837   1.520   0.102   1.823  0.0000  0.0000  0.0000
   58MPD2  HA25  838   1.620  -0.102   1.943  0.0000  0.0000  0.0000
   58MPD2  HN26  839   1.788  -0.186   2.050  0.0000  0.0000  0.0000
   58MPD2  HN27  840   1.936   0.393   1.930  0.0000  0.0000  0.0000
   58MPD2  NB28  841   1.854  -0.111   2.034  0.0000  0.0000  0.0000
   58MPD2  NB29  842   1.844   0.379   1.968  0.0000  0.0000  0.0000
   59MPD2  CA16  843  -0.064   1.253   4.084  0.0000  0.0000  0.0000
   59MPD2  CA17  844  -0.051   1.254   3.945  0.0000  0.0000  0.0000
   59MPD2  CA18  845  -0.085   1.140   3.866  0.0000  0.0000  0.0000
   59MPD2  CA19  846  -0.124   1.023   3.933  0.0000  0.0000  0.0000
   59MPD2  CA20  847  -0.136   1.021   4.074  0.0000  0.0000  0.0000
   59MPD2  CA21  848  -0.095   1.136   4.145  0.0000  0.0000  0.0000
   59MPD2  HA22  849  -0.016   1.343   3.892  0.0000  0.0000  0.0000
   59MPD2  HA23  850  -0.148   0.933   3.876  0.0000  0.0000  0.0000
   59MPD2  HA24  851  -0.164   0.928   4.121  0.0000  0.0000  0.0000
   59MPD2  HA25  852  -0.090   1.126   4.253  0.0000  0.0000  0.0000
   59MPD2  HN26  853   0.041   1.329   4.237  0.0000  0.0000  0.0000
   59MPD2  HN27  854  -0.183   1.103   3.704  0.0000  0.0000  0.0000
   59MPD2  NB28  855  -0.021   1.360   4.162  0.0000  0.0000  0.0000
   59MPD2  NB29  856  -0.094   1.143   3.731  0.0000  0.0000  0.0000
   60MPD2  CA16  857   3.785   1.652   2.417  0.0000  0.0000  0.0000
   60MPD2  CA17  858   3.797   1.734   2.299  0.0000  0.0000  0.0000
   60MPD2  CA18  859   3.794   1.871   2.306  0.0000  0.0000  0.0000
   60MPD2  CA19  860   3.795   1.941   2.428  0.0000  0.0000  0.0000
   60MPD2  CA20  861   3.778   1.859   2.540  0.0000  0.0000  0.0000
   60MPD2  CA21  862   3.767   1.718   2.535  0.0000  0.0000  0.0000
   60MPD2  HA22  863   3.803   1.682   2.204  0.0000  0.0000  0.0000
   60MPD2  HA23  864   3.810   2.048   2.439  0.0000  0.0000  0.0000
   60MPD2  HA24  865   3.776   1.905   2.639  0.0000  0.0000  0.0000
   60MPD2  HA25  866   3.755   1.660   2.626  0.0000  0.0000  0.0000
   60MPD2  HN26  867   3.767   1.479   2.515  0.0000  0.0000  0.0000
   60MPD2  HN27  868   3.877   2.022   2.182  0.0000  0.0000  0.0000
   60MPD2  NB28  869   3.760   1.513   2.419  0.0000  0.0000  0.0000
   60MPD2  NB29  870   3.801   1.956   2.189  0.0000  0.0000  0.0000
   61MPD2  CA16  871   1.618   1.904   2.904  0.0000  0.0000  0.0000
   61MPD2  CA17  872   1.726   1.984   2.878  0.0000  0.0000  0.0000
   61MPD2  CA18  873   1.763   2.093   2.958  0.0000  0.0000  0.0000
   61MPD2  CA19  874   1.683   2.137   3.057  0.0000  0.0000  0.0000
   61MPD2  CA20  875   1.568   2.062   3.088  0.0000  0.0000  0.0000
   61MPD2  CA21  876   1.541   1.949   3.013  0.0000  0.0000  0.0000
   61MPD2  HA22  877   1.803   1.956   2.807  0.0000  0.0000  0.0000
   61MPD2  HA23  878   1.709   2.225   3.115  0.0000  0.0000  0.0000
   61MPD2  HA24  879   1.513   2.098   3.174  0.0000  0.0000  0.0000
   61MPD2  HA25  880   1.453   1.892   3.044  0.0000  0.0000  0.0000
   61MPD2  HN26  881   1.527   1.745   2.792  0.0000  0.0000  0.0000
   61MPD2  HN27  882   1.944   2.057   2.915  0.0000  0.0000  0.0000
   61MPD2  NB28  883   1.610   1.773   2.843  0.0000  0.0000  0.0000
   61MPD2  NB29  884   1.890   2.138   2.943  0.0000  0.0000  0.0000
   62MPD2  CA16  885   3.641   1.126   2.890  0.0000  0.0000  0.0000
   62MPD2  CA17  886   3.572   1.216   2.976  0.0000  0.0000  0.0000
   62MPD2  CA18  887   3.584   1.200   3.112  0.0000  0.0000  0.0000
   62MPD2  CA19  888   3.667   1.109   3.163  0.0000  0.0000  0.0000
   62MPD2  CA20  889   3.737   1.020   3.082  0.0000  0.0000  0.0000
   62MPD2  CA21  890   3.724   1.022   2.942  0.0000  0.0000  0.0000
   62MPD2  HA22  891   3.503   1.286   2.930  0.0000  0.0000  0.0000
   62MPD2  HA23  892   3.682   1.101   3.270  0.0000  0.0000  0.0000
   62MPD2  HA24  893   3.796   0.944   3.134  0.0000  0.0000  0.0000
   62MPD2  HA25  894   3.780   0.958   2.875  0.0000  0.0000  0.0000
   62MPD2  HN26  895   3.572   1.229   2.717  0.0000  0.0000  0.0000
   62MPD2  HN27  896   3.580   1.336   3.267  0.0000  0.0000  0.0000
   62MPD2  NB28  897   3.622   1.147   2.747  0.0000  0.0000  0.0000
   62MPD2  NB29  898   3.520   1.290   3.199  0.0000  0.0000  0.0000
   63MPD2  CA16  899   1.154   0.844   2.176  0.0000  0.0000  0.0000
   63MPD2  CA17  900   1.023   0.805   2.154  0.0000  0.0000  0.0000
   63MPD2  CA18  901   0.917   0.896   2.148  0.0000  0.0000  0.0000
   63MPD2  CA19  902   0.947   1.032   2.157  0.0000  0.0000  0.0000
   63MPD2  CA20  903   1.076   1.075   2.186  0.0000  0.0000  0.0000
   63MPD2  CA21  904   1.178   0.979   2.202  0.0000  0.0000  0.0000
   63MPD2  HA22  905   1.006   0.699   2.136  0.0000  0.0000  0.0000
   63MPD2  HA23  906   0.873   1.110   2.143  0.0000  0.0000  0.0000
   63MPD2  HA24  907   1.106   1.179   2.190  0.0000  0.0000  0.0000
   63MPD2  HA25  908   1.280   1.009   2.224  0.0000  0.0000  0.0000
   63MPD2  HN26  909   1.228   0.650   2.181  0.0000  0.0000  0.0000
   63MPD2  HN27  910   0.727   0.926   2.078  0.0000  0.0000  0.0000
   63MPD2  NB28  911   1.258   0.746   2.172  0.0000  0.0000  0.0000
   63MPD2  NB29  912   0.790   0.855   2.111  0.0000  0.0000  0.0000
   64MPD2  CA16  913   3.067   0.828   2.132  0.0000  0.0000  0.0000
   64MPD2  CA17  914   3.179   0.878   2.189  0.0000  0.0000  0.0000
   64MPD2  CA18  915   3.305   0.849   2.147  0.0000  0.0000  0.0000
   64MPD2  CA19  916   3.325   0.768   2.032  0.0000  0.0000  0.0000
   64MPD2  CA20  917   3.207   0.734   1.963  0.0000  0.0000  0.0000
   64MPD2  CA21  918   3.081   0.753   2.015  0.0000  0.0000  0.0000
   64MPD2  HA22  919   3.171   0.941   2.278  0.0000  0.0000  0.0000
   64MPD2  HA23  920   3.425   0.748   1.994  0.0000  0.0000  0.0000
   64MPD2  HA24  921   3.215   0.674   1.874  0.0000  0.0000  0.0000
   64MPD2  HA25  922   2.992   0.712   1.968  0.0000  0.0000  0.0000
   64MPD2  HN26  923   2.864   0.830   2.099  0.0000  0.0000  0.0000
   64MPD2  HN27  924   3.405   0.934   2.318  0.0000  0.0000  0.0000
   64MPD2  NB28  925   2.929   0.870   2.166  0.0000  0.0000  0.0000
   64MPD2  NB29  926   3.416   0.915   2.219  0.0000  0.0000  0.0000
   65MPD2  CA16  927   2.132  -0.949   2.126  0.0000  0.0000  0.0000
   65MPD2  CA17  928   2.241  -0.876   2.190  0.0000  0.0000  0.0000
   65MPD2  CA18  929   2.374  -0.902   2.153  0.0000  0.0000  0.0000
   65MPD2  CA19  930   2.398  -0.975   2.036  0.0000  0.0000  0.0000
   65MPD2  CA20  931   2.297  -1.024   1.964  0.0000  0.0000  0.0000
   65MPD2  CA21  932   2.167  -1.016   2.008  0.0000  0.0000  0.0000
   65MPD2  HA22  933   2.227  -0.819   2.280  0.0000  0.0000  0.0000
   65MPD2  HA23  934   2.502  -0.978   2.004  0.0000  0.0000  0.0000
   65MPD2  HA24  935   2.316  -1.074   1.869  0.0000  0.0000  0.0000
   65MPD2  HA25  936   2.096  -1.070   1.946  0.0000  0.0000  0.0000
   65MPD2  HN26  937   1.930  -0.970   2.083  0.0000  0.0000  0.0000
   65MPD2  HN27  938   2.457  -0.727   2.236  0.0000  0.0000  0.0000
   65MPD2  NB28  939   1.993  -0.952   2.160  0.0000  0.0000  0.0000
   65MPD2  NB29  940   2.475  -0.827   2.226  0.0000  0.0000  0.0000
   66MPD1   CA1  941   0.739  -0.016   3.326  0.0000  0.0000  0.0000
   66MPD1   CA2  942   0.734   0.039   3.459  0.0000  0.0000  0.0000
   66MPD1   CA3  943   0.770   0.171   3.488  0.0000  0.0000  0.0000
   66MPD1   CA4  944   0.809   0.255   3.384  0.0000  0.0000  0.0000
   66MPD1   CA5  945   0.819   0.204   3.254  0.0000  0.0000  0.0000
   66MPD1   CA6  946   0.782   0.072   3.222  0.0000  0.0000  0.0000
   66MPD1  HA10  947   0.799   0.041   3.119  0.0000  0.0000  0.0000
   66MPD1   HA7  948   0.721  -0.034   3.538  0.0000  0.0000  0.0000
   66MPD1   HA8  949   0.823   0.362   3.393  0.0000  0.0000  0.0000
   66MPD1   HA9  950   0.860   0.278   3.185  0.0000  0.0000  0.0000
   66MPD1  HN11  951   0.644  -0.193   3.375  0.0000  0.0000  0.0000
   66MPD1  HN12  952   0.735   0.156   3.692  0.0000  0.0000  0.0000
   66MPD1  HN13  953   0.776   0.315   3.641  0.0000  0.0000  0.0000
   66MPD1  NB14  954   0.705  -0.151   3.306  0.0000  0.0000  0.0000
   66MPD1  NH15  955   0.774   0.216   3.621  0.0000  0.0000  0.0000
   67MPD2  CA16  956   2.135   2.153   3.494  0.0000  0.0000  0.0000
   67MPD2  CA17  957   2.117   2.091   3.369  0.0000  0.0000  0.0000
   67MPD2  CA18  958   2.000   2.018   3.346  0.0000  0.0000  0.0000
   67MPD2  CA19  959   1.893   2.031   3.433  0.0000  0.0000  0.0000
   67MPD2  CA20  960   1.909   2.111   3.548  0.0000  0.0000  0.0000
   67MPD2  CA21  961   2.027   2.175   3.579  0.0000  0.0000  0.0000
   67MPD2  HA22  962   2.195   2.102   3.294  0.0000  0.0000  0.0000
   67MPD2  HA23  963   1.805   1.969   3.419  0.0000  0.0000  0.0000
   67MPD2  HA24  964   1.821   2.114   3.612  0.0000  0.0000  0.0000
   67MPD2  HA25  965   2.028   2.220   3.677  0.0000  0.0000  0.0000
   67MPD2  HN26  966   2.308   2.255   3.459  0.0000  0.0000  0.0000
   67MPD2  HN27  967   1.885   1.924   3.199  0.0000  0.0000  0.0000
   67MPD2  NB28  968   2.263   2.202   3.533  0.0000  0.0000  0.0000
   67MPD2  NB29  969   1.979   1.929   3.236  0.0000  0.0000  0.0000
   68MPD2  CA16  970   0.307   1.217   2.040  0.0000  0.0000  0.0000
   68MPD2  CA17  971   0.217   1.278   2.128  0.0000  0.0000  0.0000
   68MPD2  CA18  972   0.175   1.414   2.116  0.0000  0.0000  0.0000
   68MPD2  CA19  973   0.208   1.477   2.002  0.0000  0.0000  0.0000
   68MPD2  CA20  974   0.307   1.421   1.915  0.0000  0.0000  0.0000
   68MPD2  CA21  975   0.358   1.295   1.937  0.0000  0.0000  0.0000
   68MPD2  HA22  976   0.195   1.228   2.222  0.0000  0.0000  0.0000
   68MPD2  HA23  977   0.162   1.573   1.979  0.0000  0.0000  0.0000
   68MPD2  HA24  978   0.345   1.484   1.835  0.0000  0.0000  0.0000
   68MPD2  HA25  979   0.440   1.256   1.877  0.0000  0.0000  0.0000
   68MPD2  HN26  980   0.452   1.074   2.061  0.0000  0.0000  0.0000
   68MPD2  HN27  981   0.028   1.421   2.261  0.0000  0.0000  0.0000
   68MPD2  NB28  982   0.351   1.085   2.062  0.0000  0.0000  0.0000
   68MPD2  NB29  983   0.094   1.481   2.212  0.0000  0.0000  0.0000
   69MPD2  CA16  984   0.306  -0.360   3.437  0.0000  0.0000  0.0000
   69MPD2  CA17  985   0.338  -0.225   3.472  0.0000  0.0000  0.0000
   69MPD2  CA18  986   0.369  -0.126   3.376  0.0000  0.0000  0.0000
   69MPD2  CA19  987   0.365  -0.164   3.246  0.0000  0.0000  0.0000
   69MPD2  CA20  988   0.350  -0.295   3.202  0.0000  0.0000  0.0000
   69MPD2  CA21  989   0.313  -0.391   3.297  0.0000  0.0000  0.0000
   69MPD2  HA22  990   0.348  -0.202   3.578  0.0000  0.0000  0.0000
   69MPD2  HA23  991   0.398  -0.092   3.172  0.0000  0.0000  0.0000
   69MPD2  HA24  992   0.353  -0.319   3.096  0.0000  0.0000  0.0000
   69MPD2  HA25  993   0.296  -0.492   3.260  0.0000  0.0000  0.0000
   69MPD2  HN26  994   0.211  -0.522   3.527  0.0000  0.0000  0.0000
   69MPD2  HN27  995   0.412   0.068   3.318  0.0000  0.0000  0.0000
   69MPD2  NB28  996   0.290  -0.459   3.538  0.0000  0.0000  0.0000
   69MPD2  NB29  997   0.392   0.015   3.403  0.0000  0.0000  0.0000
   70MPD2  CA16  998   0.287  -0.429   2.564  0.0000  0.0000  0.0000
   70MPD2  CA17  999   0.330  -0.440   2.701  0.0000  0.0000  0.0000
   70MPD2  CA18 1000   0.424  -0.539   2.742  0.0000  0.0000  0.0000
   70MPD2  CA19 1001   0.462  -0.644   2.660  0.0000  0.0000  0.0000
   70MPD2  CA20 1002   0.413  -0.642   2.529  0.0000  0.0000  0.0000
   70MPD2  CA21 1003   0.332  -0.540   2.480  0.0000  0.0000  0.0000
   70MPD2  HA22 1004   0.294  -0.365   2.770  0.0000  0.0000  0.0000
   70MPD2  HA23 1005   0.531  -0.724   2.687  0.0000  0.0000  0.0000
   70MPD2  HA24 1006   0.434  -0.724   2.459  0.0000  0.0000  0.0000
   70MPD2  HA25 1007   0.300  -0.551   2.377  0.0000  0.0000  0.0000
   70MPD2  HN26 1008   0.131  -0.305   2.591  0.0000  0.0000  0.0000
   70MPD2  HN27 1009   0.510  -0.425   2.888  0.0000  0.0000  0.0000
   70MPD2  NB28 1010   0.196  -0.336   2.520  0.0000  0.0000  0.0000
   70MPD2  NB29 1011   0.485  -0.521   2.866  0.0000  0.0000  0.0000
   71MPD2  CA16 1012   2.419  -0.666   2.677  0.0000  0.0000  0.0000
   71MPD2  CA17 1013   2.396  -0.787   2.614  0.0000  0.0000  0.0000
   71MPD2  CA18 1014   2.455  -0.909   2.668  0.0000  0.0000  0.0000
   71MPD2  CA19 1015   2.534  -0.900   2.783  0.0000  0.0000  0.0000
   71MPD2  CA20 1016   2.555  -0.779   2.842  0.0000  0.0000  0.0000
   71MPD2  CA21 1017   2.512  -0.663   2.785  0.0000  0.0000  0.0000
   71MPD2  HA22 1018   2.334  -0.778   2.525  0.0000  0.0000  0.0000
   71MPD2  HA23 1019   2.583  -0.984   2.832  0.0000  0.0000  0.0000
   71MPD2  HA24 1020   2.611  -0.770   2.935  0.0000  0.0000  0.0000
   71MPD2  HA25 1021   2.556  -0.573   2.826  0.0000  0.0000  0.0000
   71MPD2  HN26 1022   2.430  -0.471   2.609  0.0000  0.0000  0.0000
   71MPD2  HN27 1023   2.518  -1.106   2.631  0.0000  0.0000  0.0000
   71MPD2  NB28 1024   2.365  -0.548   2.617  0.0000  0.0000  0.0000
   71MPD2  NB29 1025   2.442  -1.042   2.609  0.0000  0.0000  0.0000
   72MPD2  CA16 1026   1.213   1.494   3.345  0.0000  0.0000  0.0000
   72MPD2  CA17 1027   1.251   1.633   3.357  0.0000  0.0000  0.0000
   72MPD2  CA18 1028   1.210   1.709   3.464  0.0000  0.0000  0.0000
   72MPD2  CA19 1029   1.137   1.650   3.566  0.0000  0.0000  0.0000
   72MPD2  CA20 1030   1.101   1.514   3.564  0.0000  0.0000  0.0000
   72MPD2  CA21 1031   1.136   1.438   3.448  0.0000  0.0000  0.0000
   72MPD2  HA22 1032   1.317   1.683   3.286  0.0000  0.0000  0.0000
   72MPD2  HA23 1033   1.108   1.713   3.649  0.0000  0.0000  0.0000
   72MPD2  HA24 1034   1.057   1.463   3.650  0.0000  0.0000  0.0000
   72MPD2  HA25 1035   1.102   1.335   3.443  0.0000  0.0000  0.0000
   72MPD2  HN26 1036   1.353   1.419   3.203  0.0000  0.0000  0.0000
   72MPD2  HN27 1037   1.216   1.869   3.575  0.0000  0.0000  0.0000
   72MPD2  NB28 1038   1.258   1.411   3.239  0.0000  0.0000  0.0000
   72MPD2  NB29 1039   1.233   1.849   3.477  0.0000  0.0000  0.0000
   73MPD2  CA16 1040   1.184   1.465   2.267  0.0000  0.0000  0.0000
   73MPD2  CA17 1041   1.089   1.467   2.373  0.0000  0.0000  0.0000
   73MPD2  CA18 1042   0.978   1.552   2.372  0.0000  0.0000  0.0000
   73MPD2  CA19 1043   0.961   1.635   2.263  0.0000  0.0000  0.0000
   73MPD2  CA20 1044   1.055   1.642   2.158  0.0000  0.0000  0.0000
   73MPD2  CA21 1045   1.162   1.558   2.161  0.0000  0.0000  0.0000
   73MPD2  HA22 1046   1.094   1.398   2.457  0.0000  0.0000  0.0000
   73MPD2  HA23 1047   0.877   1.704   2.258  0.0000  0.0000  0.0000
   73MPD2  HA24 1048   1.039   1.709   2.074  0.0000  0.0000  0.0000
   73MPD2  HA25 1049   1.237   1.566   2.084  0.0000  0.0000  0.0000
   73MPD2  HN26 1050   1.271   1.292   2.330  0.0000  0.0000  0.0000
   73MPD2  HN27 1051   0.879   1.417   2.483  0.0000  0.0000  0.0000
   73MPD2  NB28 1052   1.296   1.371   2.272  0.0000  0.0000  0.0000
   73MPD2  NB29 1053   0.881   1.516   2.463  0.0000  0.0000  0.0000
   74MPD2  CA16 1054  -0.555   1.176   2.718  0.0000  0.0000  0.0000
   74MPD2  CA17 1055  -0.462   1.265   2.667  0.0000  0.0000  0.0000
   74MPD2  CA18 1056  -0.408   1.370   2.744  0.0000  0.0000  0.0000
   74MPD2  CA19 1057  -0.457   1.382   2.874  0.0000  0.0000  0.0000
   74MPD2  CA20 1058  -0.547   1.287   2.927  0.0000  0.0000  0.0000
   74MPD2  CA21 1059  -0.602   1.189   2.849  0.0000  0.0000  0.0000
   74MPD2  HA22 1060  -0.438   1.251   2.562  0.0000  0.0000  0.0000
   74MPD2  HA23 1061  -0.416   1.465   2.930  0.0000  0.0000  0.0000
   74MPD2  HA24 1062  -0.584   1.302   3.028  0.0000  0.0000  0.0000
   74MPD2  HA25 1063  -0.665   1.112   2.894  0.0000  0.0000  0.0000
   74MPD2  HN26 1064  -0.598   0.973   2.696  0.0000  0.0000  0.0000
   74MPD2  HN27 1065  -0.367   1.551   2.663  0.0000  0.0000  0.0000
   74MPD2  NB28 1066  -0.593   1.062   2.648  0.0000  0.0000  0.0000
   74MPD2  NB29 1067  -0.319   1.464   2.684  0.0000  0.0000  0.0000
   75MPD2  CA16 1068   2.418   1.527   2.732  0.0000  0.0000  0.0000
   75MPD2  CA17 1069   2.414   1.416   2.649  0.0000  0.0000  0.0000
   75MPD2  CA18 1070   2.528   1.360   2.594  0.0000  0.0000  0.0000
   75MPD2  CA19 1071   2.648   1.432   2.610  0.0000  0.0000  0.0000
   75MPD2  CA20 1072   2.653   1.559   2.681  0.0000  0.0000  0.0000
   75MPD2  CA21 1073   2.537   1.603   2.745  0.0000  0.0000  0.0000
   75MPD2  HA22 1074   2.320   1.363   2.638  0.0000  0.0000  0.0000
   75MPD2  HA23 1075   2.738   1.400   2.558  0.0000  0.0000  0.0000
   75MPD2  HA24 1076   2.742   1.622   2.686  0.0000  0.0000  0.0000
   75MPD2  HA25 1077   2.544   1.688   2.811  0.0000  0.0000  0.0000
   75MPD2  HN26 1078   2.321   1.640   2.876  0.0000  0.0000  0.0000
   75MPD2  HN27 1079   2.645   1.218   2.508  0.0000  0.0000  0.0000
   75MPD2  NB28 1080   2.302   1.579   2.798  0.0000  0.0000  0.0000
   75MPD2  NB29 1081   2.547   1.238   2.523  0.0000  0.0000  0.0000
   76MPD1   CA1 1082   0.878  -0.517   2.881  0.0000  0.0000  0.0000
   76MPD1   CA2 1083   0.834  -0.577   2.765  0.0000  0.0000  0.0000
   76MPD1   CA3 1084   0.807  -0.717   2.763  0.0000  0.0000  0.0000
   76MPD1   CA4 1085   0.809  -0.789   2.881  0.0000  0.0000  0.0000
   76MPD1   CA5 1086   0.856  -0.729   2.998  0.0000  0.0000  0.0000
   76MPD1   CA6 1087   0.891  -0.591   2.997  0.0000  0.0000  0.0000
   76MPD1  HA10 1088   0.920  -0.537   3.087  0.0000  0.0000  0.0000
   76MPD1   HA7 1089   0.816  -0.523   2.673  0.0000  0.0000  0.0000
   76MPD1   HA8 1090   0.768  -0.889   2.879  0.0000  0.0000  0.0000
   76MPD1   HA9 1091   0.852  -0.781   3.093  0.0000  0.0000  0.0000
   76MPD1  HN11 1092   0.878  -0.314   2.947  0.0000  0.0000  0.0000
   76MPD1  HN12 1093   0.708  -0.863   2.651  0.0000  0.0000  0.0000
   76MPD1  HN13 1094   0.747  -0.722   2.566  0.0000  0.0000  0.0000
   76MPD1  NB14 1095   0.917  -0.375   2.876  0.0000  0.0000  0.0000
   76MPD1  NH15 1096   0.765  -0.780   2.647  0.0000  0.0000  0.0000
   77MPD2  CA16 1097   0.749   0.369   2.858  0.0000  0.0000  0.0000
   77MPD2  CA17 1098   0.669   0.347   2.969  0.0000  0.0000  0.0000
   77MPD2  CA18 1099   0.587   0.440   3.022  0.0000  0.0000  0.0000
   77MPD2  CA19 1100   0.578   0.566   2.966  0.0000  0.0000  0.0000
   77MPD2  CA20 1101   0.668   0.596   2.859  0.0000  0.0000  0.0000
   77MPD2  CA21 1102   0.756   0.503   2.807  0.0000  0.0000  0.0000
   77MPD2  HA22 1103   0.666   0.248   3.014  0.0000  0.0000  0.0000
   77MPD2  HA23 1104   0.512   0.642   3.007  0.0000  0.0000  0.0000
   77MPD2  HA24 1105   0.656   0.689   2.805  0.0000  0.0000  0.0000
   77MPD2  HA25 1106   0.801   0.527   2.711  0.0000  0.0000  0.0000
   77MPD2  HN26 1107   0.922   0.323   2.773  0.0000  0.0000  0.0000
   77MPD2  HN27 1108   0.473   0.329   3.154  0.0000  0.0000  0.0000
   77MPD2  NB28 1109   0.843   0.272   2.811  0.0000  0.0000  0.0000
   77MPD2  NB29 1110   0.530   0.412   3.146  0.0000  0.0000  0.0000
   78MPD2  CA16 1111   2.109   1.098   2.175  0.0000  0.0000  0.0000
   78MPD2  CA17 1112   2.156   0.967   2.146  0.0000  0.0000  0.0000
   78MPD2  CA18 1113   2.284   0.951   2.089  0.0000  0.0000  0.0000
   78MPD2  CA19 1114   2.358   1.065   2.056  0.0000  0.0000  0.0000
   78MPD2  CA20 1115   2.309   1.191   2.081  0.0000  0.0000  0.0000
   78MPD2  CA21 1116   2.186   1.210   2.140  0.0000  0.0000  0.0000
   78MPD2  HA22 1117   2.086   0.887   2.169  0.0000  0.0000  0.0000
   78MPD2  HA23 1118   2.450   1.050   2.001  0.0000  0.0000  0.0000
   78MPD2  HA24 1119   2.378   1.273   2.065  0.0000  0.0000  0.0000
   78MPD2  HA25 1120   2.157   1.310   2.171  0.0000  0.0000  0.0000
   78MPD2  HN26 1121   1.935   1.012   2.249  0.0000  0.0000  0.0000
   78MPD2  HN27 1122   2.294   0.761   2.001  0.0000  0.0000  0.0000
   78MPD2  NB28 1123   1.975   1.102   2.226  0.0000  0.0000  0.0000
   78MPD2  NB29 1124   2.340   0.823   2.067  0.0000  0.0000  0.0000
   79MPD2  CA16 1125  -0.367   0.490   2.649  0.0000  0.0000  0.0000
   79MPD2  CA17 1126  -0.328   0.370   2.589  0.0000  0.0000  0.0000
   79MPD2  CA18 1127  -0.248   0.274   2.647  0.0000  0.0000  0.0000
   79MPD2  CA19 1128  -0.171   0.309   2.757  0.0000  0.0000  0.0000
   79MPD2  CA20 1129  -0.219   0.424   2.825  0.0000  0.0000  0.0000
   79MPD2  CA21 1130  -0.312   0.505   2.773  0.0000  0.0000  0.0000
   79MPD2  HA22 1131  -0.369   0.344   2.492  0.0000  0.0000  0.0000
   79MPD2  HA23 1132  -0.085   0.256   2.797  0.0000  0.0000  0.0000
   79MPD2  HA24 1133  -0.163   0.459   2.911  0.0000  0.0000  0.0000
   79MPD2  HA25 1134  -0.340   0.593   2.830  0.0000  0.0000  0.0000
   79MPD2  HN26 1135  -0.412   0.684   2.588  0.0000  0.0000  0.0000
   79MPD2  HN27 1136  -0.265   0.154   2.482  0.0000  0.0000  0.0000
   79MPD2  NB28 1137  -0.444   0.588   2.579  0.0000  0.0000  0.0000
   79MPD2  NB29 1138  -0.226   0.155   2.576  0.0000  0.0000  0.0000
   80MPD2  CA16 1139  -0.143   0.242   2.144  0.0000  0.0000  0.0000
   80MPD2  CA17 1140  -0.035   0.317   2.186  0.0000  0.0000  0.0000
   80MPD2  CA18 1141  -0.052   0.430   2.264  0.0000  0.0000  0.0000
   80MPD2  CA19 1142  -0.183   0.478   2.285  0.0000  0.0000  0.0000
   80MPD2  CA20 1143  -0.293   0.406   2.246  0.0000  0.0000  0.0000
   80MPD2  CA21 1144  -0.271   0.288   2.170  0.0000  0.0000  0.0000
   80MPD2  HA22 1145   0.067   0.289   2.162  0.0000  0.0000  0.0000
   80MPD2  HA23 1146  -0.202   0.572   2.335  0.0000  0.0000  0.0000
   80MPD2  HA24 1147  -0.394   0.444   2.257  0.0000  0.0000  0.0000
   80MPD2  HA25 1148  -0.361   0.237   2.135  0.0000  0.0000  0.0000
   80MPD2  HN26 1149  -0.180   0.130   1.973  0.0000  0.0000  0.0000
   80MPD2  HN27 1150   0.024   0.587   2.375  0.0000  0.0000  0.0000
   80MPD2  NB28 1151  -0.139   0.123   2.065  0.0000  0.0000  0.0000
   80MPD2  NB29 1152   0.061   0.513   2.317  0.0000  0.0000  0.0000
   81MPD2  CA16 1153   0.203   1.098   2.705  0.0000  0.0000  0.0000
   81MPD2  CA17 1154   0.162   1.088   2.839  0.0000  0.0000  0.0000
   81MPD2  CA18 1155   0.115   1.197   2.912  0.0000  0.0000  0.0000
   81MPD2  CA19 1156   0.112   1.322   2.849  0.0000  0.0000  0.0000
   81MPD2  CA20 1157   0.158   1.335   2.719  0.0000  0.0000  0.0000
   81MPD2  CA21 1158   0.202   1.227   2.645  0.0000  0.0000  0.0000
   81MPD2  HA22 1159   0.164   0.991   2.887  0.0000  0.0000  0.0000
   81MPD2  HA23 1160   0.085   1.405   2.914  0.0000  0.0000  0.0000
   81MPD2  HA24 1161   0.164   1.437   2.683  0.0000  0.0000  0.0000
   81MPD2  HA25 1162   0.241   1.241   2.545  0.0000  0.0000  0.0000
   81MPD2  HN26 1163   0.302   0.913   2.695  0.0000  0.0000  0.0000
   81MPD2  HN27 1164  -0.034   1.232   3.047  0.0000  0.0000  0.0000
   81MPD2  NB28 1165   0.250   0.980   2.640  0.0000  0.0000  0.0000
   81MPD2  NB29 1166   0.056   1.187   3.037  0.0000  0.0000  0.0000
   82MPD2  CA16 1167   1.558   0.075   2.757  0.0000  0.0000  0.0000
   82MPD2  CA17 1168   1.652   0.009   2.682  0.0000  0.0000  0.0000
   82MPD2  CA18 1169   1.787   0.037   2.691  0.0000  0.0000  0.0000
   82MPD2  CA19 1170   1.835   0.135   2.780  0.0000  0.0000  0.0000
   82MPD2  CA20 1171   1.745   0.208   2.854  0.0000  0.0000  0.0000
   82MPD2  CA21 1172   1.611   0.166   2.852  0.0000  0.0000  0.0000
   82MPD2  HA22 1173   1.622  -0.076   2.621  0.0000  0.0000  0.0000
   82MPD2  HA23 1174   1.940   0.156   2.796  0.0000  0.0000  0.0000
   82MPD2  HA24 1175   1.775   0.289   2.920  0.0000  0.0000  0.0000
   82MPD2  HA25 1176   1.544   0.218   2.920  0.0000  0.0000  0.0000
   82MPD2  HN26 1177   1.429  -0.077   2.773  0.0000  0.0000  0.0000
   82MPD2  HN27 1178   1.948   0.019   2.571  0.0000  0.0000  0.0000
   82MPD2  NB28 1179   1.433   0.024   2.773  0.0000  0.0000  0.0000
   82MPD2  NB29 1180   1.878  -0.037   2.616  0.0000  0.0000  0.0000
   83MPD2  CA16 1181   2.346   0.131   2.301  0.0000  0.0000  0.0000
   83MPD2  CA17 1182   2.283   0.227   2.221  0.0000  0.0000  0.0000
   83MPD2  CA18 1183   2.347   0.351   2.183  0.0000  0.0000  0.0000
   83MPD2  CA19 1184   2.483   0.360   2.217  0.0000  0.0000  0.0000
   83MPD2  CA20 1185   2.548   0.266   2.296  0.0000  0.0000  0.0000
   83MPD2  CA21 1186   2.476   0.151   2.342  0.0000  0.0000  0.0000
   83MPD2  HA22 1187   2.182   0.202   2.189  0.0000  0.0000  0.0000
   83MPD2  HA23 1188   2.542   0.437   2.169  0.0000  0.0000  0.0000
   83MPD2  HA24 1189   2.650   0.289   2.326  0.0000  0.0000  0.0000
   83MPD2  HA25 1190   2.529   0.084   2.409  0.0000  0.0000  0.0000
   83MPD2  HN26 1191   2.180   0.029   2.375  0.0000  0.0000  0.0000
   83MPD2  HN27 1192   2.354   0.468   2.021  0.0000  0.0000  0.0000
   83MPD2  NB28 1193   2.273   0.015   2.337  0.0000  0.0000  0.0000
   83MPD2  NB29 1194   2.287   0.441   2.092  0.0000  0.0000  0.0000
   84MPD2  CA16 1195   1.079   0.847   2.607  0.0000  0.0000  0.0000
   84MPD2  CA17 1196   0.934   0.847   2.588  0.0000  0.0000  0.0000
   84MPD2  CA18 1197   0.866   0.749   2.510  0.0000  0.0000  0.0000
   84MPD2  CA19 1198   0.941   0.650   2.444  0.0000  0.0000  0.0000
   84MPD2  CA20 1199   1.080   0.654   2.459  0.0000  0.0000  0.0000
   84MPD2  CA21 1200   1.151   0.754   2.533  0.0000  0.0000  0.0000
   84MPD2  HA22 1201   0.884   0.931   2.637  0.0000  0.0000  0.0000
   84MPD2  HA23 1202   0.892   0.583   2.374  0.0000  0.0000  0.0000
   84MPD2  HA24 1203   1.137   0.575   2.410  0.0000  0.0000  0.0000
   84MPD2  HA25 1204   1.259   0.745   2.543  0.0000  0.0000  0.0000
   84MPD2  HN26 1205   1.234   0.977   2.651  0.0000  0.0000  0.0000
   84MPD2  HN27 1206   0.688   0.845   2.468  0.0000  0.0000  0.0000
   84MPD2  NB28 1207   1.147   0.946   2.694  0.0000  0.0000  0.0000
   84MPD2  NB29 1208   0.725   0.757   2.499  0.0000  0.0000  0.0000
   85MPD2  CA16 1209   1.906   0.960   2.609  0.0000  0.0000  0.0000
   85MPD2  CA17 1210   1.783   0.956   2.686  0.0000  0.0000  0.0000
   85MPD2  CA18 1211   1.737   1.077   2.741  0.0000  0.0000  0.0000
   85MPD2  CA19 1212   1.800   1.196   2.708  0.0000  0.0000  0.0000
   85MPD2  CA20 1213   1.918   1.199   2.630  0.0000  0.0000  0.0000
   85MPD2  CA21 1214   1.975   1.077   2.583  0.0000  0.0000  0.0000
   85MPD2  HA22 1215   1.729   0.865   2.707  0.0000  0.0000  0.0000
   85MPD2  HA23 1216   1.750   1.289   2.732  0.0000  0.0000  0.0000
   85MPD2  HA24 1217   1.960   1.289   2.587  0.0000  0.0000  0.0000
   85MPD2  HA25 1218   2.060   1.086   2.517  0.0000  0.0000  0.0000
   85MPD2  HN26 1219   1.886   0.760   2.564  0.0000  0.0000  0.0000
   85MPD2  HN27 1220   1.546   1.005   2.768  0.0000  0.0000  0.0000
   85MPD2  NB28 1221   1.956   0.833   2.563  0.0000  0.0000  0.0000
   85MPD2  NB29 1222   1.608   1.079   2.800  0.0000  0.0000  0.0000
   86MPD2  CA16 1223   1.599   0.711   2.535  0.0000  0.0000  0.0000
   86MPD2  CA17 1224   1.658   0.602   2.479  0.0000  0.0000  0.0000
   86MPD2  CA18 1225   1.679   0.485   2.548  0.0000  0.0000  0.0000
   86MPD2  CA19 1226   1.628   0.467   2.683  0.0000  0.0000  0.0000
   86MPD2  CA20 1227   1.559   0.577   2.741  0.0000  0.0000  0.0000
   86MPD2  CA21 1228   1.544   0.696   2.667  0.0000  0.0000  0.0000
   86MPD2  HA22 1229   1.683   0.609   2.373  0.0000  0.0000  0.0000
   86MPD2  HA23 1230   1.633   0.367   2.725  0.0000  0.0000  0.0000
   86MPD2  HA24 1231   1.512   0.571   2.839  0.0000  0.0000  0.0000
   86MPD2  HA25 1232   1.482   0.769   2.717  0.0000  0.0000  0.0000
   86MPD2  HN26 1233   1.694   0.839   2.414  0.0000  0.0000  0.0000
   86MPD2  HN27 1234   1.670   0.288   2.500  0.0000  0.0000  0.0000
   86MPD2  NB28 1235   1.610   0.836   2.471  0.0000  0.0000  0.0000
   86MPD2  NB29 1236   1.726   0.372   2.487  0.0000  0.0000  0.0000
   87TMC3  CA37 1237   1.941   0.455   2.382  0.0000  0.0000  0.0000
   87TMC3  CA38 1238   1.971   0.568   2.466  0.0000  0.0000  0.0000
   87TMC3  CA39 1239   2.061   0.665   2.434  0.0000  0.0000  0.0000
   87TMC3  CA40 1240   2.143   0.647   2.325  0.0000  0.0000  0.0000
   87TMC3  CA41 1241   2.119   0.536   2.241  0.0000  0.0000  0.0000
   87TMC3  CA42 1242   2.018   0.441   2.270  0.0000  0.0000  0.0000
   87TMC3  CB43 1243   1.839   0.349   2.409  0.0000  0.0000  0.0000
   87TMC3  CB44 1244   2.078   0.794   2.509  0.0000  0.0000  0.0000
   87TMC3  CB45 1245   2.186   0.530   2.107  0.0000  0.0000  0.0000
   87TMC3  HA46 1246   1.917   0.570   2.560  0.0000  0.0000  0.0000
   87TMC3  HA47 1247   2.212   0.728   2.303  0.0000  0.0000  0.0000
   87TMC3  HA48 1248   1.993   0.359   2.204  0.0000  0.0000  0.0000
   87TMC3   O49 1249   1.864   0.245   2.353  0.0000  0.0000  0.0000
   87TMC3   O50 1250   2.177   0.864   2.513  0.0000  0.0000  0.0000
   87TMC3   O51 1251   2.155   0.623   2.035  0.0000  0.0000  0.0000
   88TMC3  CA37 1252   1.233   1.237   3.065  0.0000  0.0000  0.0000
   88TMC3  CA38 1253   1.371   1.242   3.034  0.0000  0.0000  0.0000
   88TMC3  CA39 1254   1.415   1.158   2.929  0.0000  0.0000  0.0000
   88TMC3  CA40 1255   1.328   1.081   2.857  0.0000  0.0000  0.0000
   88TMC3  CA41 1256   1.198   1.071   2.895  0.0000  0.0000  0.0000
   88TMC3  CA42 1257   1.151   1.150   2.995  0.0000  0.0000  0.0000
   88TMC3  CB43 1258   1.172   1.335   3.163  0.0000  0.0000  0.0000
   88TMC3  CB44 1259   1.557   1.175   2.889  0.0000  0.0000  0.0000
   88TMC3  CB45 1260   1.110   0.976   2.824  0.0000  0.0000  0.0000
   88TMC3  HA46 1261   1.437   1.307   3.090  0.0000  0.0000  0.0000
   88TMC3  HA47 1262   1.366   1.021   2.775  0.0000  0.0000  0.0000
   88TMC3  HA48 1263   1.049   1.136   3.028  0.0000  0.0000  0.0000
   88TMC3   O49 1264   1.047   1.338   3.183  0.0000  0.0000  0.0000
   88TMC3   O50 1265   1.620   1.264   2.939  0.0000  0.0000  0.0000
   88TMC3   O51 1266   1.011   0.927   2.876  0.0000  0.0000  0.0000
   89TMC3  CA37 1267   2.007  -0.231   2.549  0.0000  0.0000  0.0000
   89TMC3  CA38 1268   2.059  -0.354   2.596  0.0000  0.0000  0.0000
   89TMC3  CA39 1269   2.179  -0.401   2.545  0.0000  0.0000  0.0000
   89TMC3  CA40 1270   2.253  -0.322   2.461  0.0000  0.0000  0.0000
   89TMC3  CA41 1271   2.211  -0.202   2.416  0.0000  0.0000  0.0000
   89TMC3  CA42 1272   2.085  -0.158   2.455  0.0000  0.0000  0.0000
   89TMC3  CB43 1273   1.894  -0.173   2.624  0.0000  0.0000  0.0000
   89TMC3  CB44 1274   2.225  -0.529   2.604  0.0000  0.0000  0.0000
   89TMC3  CB45 1275   2.311  -0.116   2.347  0.0000  0.0000  0.0000
   89TMC3  HA46 1276   2.002  -0.419   2.661  0.0000  0.0000  0.0000
   89TMC3  HA47 1277   2.353  -0.351   2.429  0.0000  0.0000  0.0000
   89TMC3  HA48 1278   2.044  -0.068   2.410  0.0000  0.0000  0.0000
   89TMC3   O49 1279   1.826  -0.251   2.692  0.0000  0.0000  0.0000
   89TMC3   O50 1280   2.142  -0.613   2.628  0.0000  0.0000  0.0000
   89TMC3   O51 1281   2.415  -0.166   2.301  0.0000  0.0000  0.0000
   90TMC3  CA37 1282   0.492   0.675   2.466  0.0000  0.0000  0.0000
   90TMC3  CA38 1283   0.416   0.581   2.397  0.0000  0.0000  0.0000
   90TMC3  CA39 1284   0.287   0.609   2.365  0.0000  0.0000  0.0000
   90TMC3  CA40 1285   0.219   0.722   2.407  0.0000  0.0000  0.0000
   90TMC3  CA41 1286   0.297   0.819   2.472  0.0000  0.0000  0.0000
   90TMC3  CA42 1287   0.430   0.796   2.497  0.0000  0.0000  0.0000
   90TMC3  CB43 1288   0.635   0.649   2.499  0.0000  0.0000  0.0000
   90TMC3  CB44 1289   0.202   0.501   2.306  0.0000  0.0000  0.0000
   90TMC3  CB45 1290   0.232   0.952   2.509  0.0000  0.0000  0.0000
   90TMC3  HA46 1291   0.460   0.483   2.380  0.0000  0.0000  0.0000
   90TMC3  HA47 1292   0.117   0.750   2.381  0.0000  0.0000  0.0000
   90TMC3  HA48 1293   0.491   0.871   2.547  0.0000  0.0000  0.0000
   90TMC3   O49 1294   0.666   0.532   2.515  0.0000  0.0000  0.0000
   90TMC3   O50 1295   0.262   0.413   2.247  0.0000  0.0000  0.0000
   90TMC3   O51 1296   0.175   1.021   2.426  0.0000  0.0000  0.0000
   91TMC3  CA37 1297  -0.080  -0.016   2.476  0.0000  0.0000  0.0000
   91TMC3  CA38 1298   0.006  -0.122   2.494  0.0000  0.0000  0.0000
   91TMC3  CA39 1299   0.064  -0.193   2.382  0.0000  0.0000  0.0000
   91TMC3  CA40 1300   0.010  -0.170   2.254  0.0000  0.0000  0.0000
   91TMC3  CA41 1301  -0.075  -0.055   2.236  0.0000  0.0000  0.0000
   91TMC3  CA42 1302  -0.116   0.017   2.349  0.0000  0.0000  0.0000
   91TMC3  CB43 1303  -0.138   0.053   2.597  0.0000  0.0000  0.0000
   91TMC3  CB44 1304   0.176  -0.292   2.394  0.0000  0.0000  0.0000
   91TMC3  CB45 1305  -0.109  -0.009   2.100  0.0000  0.0000  0.0000
   91TMC3  HA46 1306   0.030  -0.148   2.596  0.0000  0.0000  0.0000
   91TMC3  HA47 1307   0.043  -0.225   2.166  0.0000  0.0000  0.0000
   91TMC3  HA48 1308  -0.189   0.094   2.330  0.0000  0.0000  0.0000
   91TMC3   O49 1309  -0.096   0.018   2.707  0.0000  0.0000  0.0000
   91TMC3   O50 1310   0.240  -0.316   2.293  0.0000  0.0000  0.0000
   91TMC3   O51 1311  -0.107  -0.090   2.010  0.0000  0.0000  0.0000
   92TMC3  CA37 1312   1.032  -0.177   2.788  0.0000  0.0000  0.0000
   92TMC3  CA38 1313   0.922  -0.090   2.789  0.0000  0.0000  0.0000
   92TMC3  CA39 1314   0.940   0.047   2.785  0.0000  0.0000  0.0000
   92TMC3  CA40 1315   1.067   0.096   2.781  0.0000  0.0000  0.0000
   92TMC3  CA41 1316   1.180   0.016   2.781  0.0000  0.0000  0.0000
   92TMC3  CA42 1317   1.164  -0.122   2.786  0.0000  0.0000  0.0000
   92TMC3  CB43 1318   1.014  -0.325   2.790  0.0000  0.0000  0.0000
   92TMC3  CB44 1319   0.821   0.139   2.802  0.0000  0.0000  0.0000
   92TMC3  CB45 1320   1.315   0.091   2.765  0.0000  0.0000  0.0000
   92TMC3  HA46 1321   0.825  -0.132   2.812  0.0000  0.0000  0.0000
   92TMC3  HA47 1322   1.083   0.203   2.779  0.0000  0.0000  0.0000
   92TMC3  HA48 1323   1.246  -0.194   2.790  0.0000  0.0000  0.0000
   92TMC3   O49 1324   1.092  -0.390   2.718  0.0000  0.0000  0.0000
   92TMC3   O50 1325   0.712   0.089   2.823  0.0000  0.0000  0.0000
   92TMC3   O51 1326   1.318   0.212   2.745  0.0000  0.0000  0.0000
   93TMC3  CA37 1327   1.515   1.265   2.265  0.0000  0.0000  0.0000
   93TMC3  CA38 1328   1.478   1.170   2.355  0.0000  0.0000  0.0000
   93TMC3  CA39 1329   1.570   1.071   2.393  0.0000  0.0000  0.0000
   93TMC3  CA40 1330   1.703   1.077   2.349  0.0000  0.0000  0.0000
   93TMC3  CA41 1331   1.742   1.185   2.270  0.0000  0.0000  0.0000
   93TMC3  CA42 1332   1.649   1.276   2.225  0.0000  0.0000  0.0000
   93TMC3  CB43 1333   1.427   1.379   2.232  0.0000  0.0000  0.0000
   93TMC3  CB44 1334   1.535   0.957   2.484  0.0000  0.0000  0.0000
   93TMC3  CB45 1335   1.884   1.209   2.224  0.0000  0.0000  0.0000
   93TMC3  HA46 1336   1.375   1.161   2.389  0.0000  0.0000  0.0000
   93TMC3  HA47 1337   1.775   1.007   2.389  0.0000  0.0000  0.0000
   93TMC3  HA48 1338   1.676   1.353   2.153  0.0000  0.0000  0.0000
   93TMC3   O49 1339   1.462   1.478   2.175  0.0000  0.0000  0.0000
   93TMC3   O50 1340   1.440   0.967   2.555  0.0000  0.0000  0.0000
   93TMC3   O51 1341   1.914   1.320   2.182  0.0000  0.0000  0.0000
   94TMC3  CA37 1342   0.492   0.419   3.394  0.0000  0.0000  0.0000
   94TMC3  CA38 1343   0.473   0.284   3.398  0.0000  0.0000  0.0000
   94TMC3  CA39 1344   0.439   0.222   3.521  0.0000  0.0000  0.0000
   94TMC3  CA40 1345   0.435   0.298   3.635  0.0000  0.0000  0.0000
   94TMC3  CA41 1346   0.442   0.438   3.626  0.0000  0.0000  0.0000
   94TMC3  CA42 1347   0.467   0.495   3.505  0.0000  0.0000  0.0000
   94TMC3  CB43 1348   0.546   0.487   3.266  0.0000  0.0000  0.0000
   94TMC3  CB44 1349   0.428   0.073   3.523  0.0000  0.0000  0.0000
   94TMC3  CB45 1350   0.415   0.521   3.740  0.0000  0.0000  0.0000
   94TMC3  HA46 1351   0.502   0.227   3.310  0.0000  0.0000  0.0000
   94TMC3  HA47 1352   0.430   0.237   3.725  0.0000  0.0000  0.0000
   94TMC3  HA48 1353   0.475   0.603   3.500  0.0000  0.0000  0.0000
   94TMC3   O49 1354   0.603   0.595   3.275  0.0000  0.0000  0.0000
   94TMC3   O50 1355   0.440   0.013   3.629  0.0000  0.0000  0.0000
   94TMC3   O51 1356   0.383   0.639   3.728  0.0000  0.0000  0.0000
   95TMC3  CA37 1357   2.517   0.848   2.236  0.0000  0.0000  0.0000
   95TMC3  CA38 1358   2.458   0.938   2.327  0.0000  0.0000  0.0000
   95TMC3  CA39 1359   2.538   1.037   2.387  0.0000  0.0000  0.0000
   95TMC3  CA40 1360   2.671   1.048   2.367  0.0000  0.0000  0.0000
   95TMC3  CA41 1361   2.733   0.947   2.292  0.0000  0.0000  0.0000
   95TMC3  CA42 1362   2.654   0.849   2.224  0.0000  0.0000  0.0000
   95TMC3  CB43 1363   2.448   0.766   2.128  0.0000  0.0000  0.0000
   95TMC3  CB44 1364   2.468   1.142   2.461  0.0000  0.0000  0.0000
   95TMC3  CB45 1365   2.880   0.943   2.277  0.0000  0.0000  0.0000
   95TMC3  HA46 1366   2.350   0.940   2.334  0.0000  0.0000  0.0000
   95TMC3  HA47 1367   2.734   1.129   2.402  0.0000  0.0000  0.0000
   95TMC3  HA48 1368   2.697   0.780   2.153  0.0000  0.0000  0.0000
   95TMC3   O49 1369   2.493   0.659   2.092  0.0000  0.0000  0.0000
   95TMC3   O50 1370   2.347   1.152   2.470  0.0000  0.0000  0.0000
   95TMC3   O51 1371   2.949   1.003   2.357  0.0000  0.0000  0.0000
   96TMC3  CA37 1372  -0.777   0.804   2.297  0.0000  0.0000  0.0000
   96TMC3  CA38 1373  -0.753   0.925   2.345  0.0000  0.0000  0.0000
   96TMC3  CA39 1374  -0.675   0.932   2.454  0.0000  0.0000  0.0000
   96TMC3  CA40 1375  -0.606   0.820   2.503  0.0000  0.0000  0.0000
   96TMC3  CA41 1376  -0.627   0.691   2.455  0.0000  0.0000  0.0000
   96TMC3  CA42 1377  -0.720   0.686   2.348  0.0000  0.0000  0.0000
   96TMC3  CB43 1378  -0.861   0.781   2.181  0.0000  0.0000  0.0000
   96TMC3  CB44 1379  -0.637   1.069   2.515  0.0000  0.0000  0.0000
   96TMC3  CB45 1380  -0.551   0.569   2.493  0.0000  0.0000  0.0000
   96TMC3  HA46 1381  -0.782   1.020   2.301  0.0000  0.0000  0.0000
   96TMC3  HA47 1382  -0.528   0.844   2.574  0.0000  0.0000  0.0000
   96TMC3  HA48 1383  -0.748   0.591   2.304  0.0000  0.0000  0.0000
   96TMC3   O49 1384  -0.966   0.710   2.186  0.0000  0.0000  0.0000
   96TMC3   O50 1385  -0.661   1.173   2.456  0.0000  0.0000  0.0000
   96TMC3   O51 1386  -0.600   0.461   2.464  0.0000  0.0000  0.0000
   97TMC3  CA37 1387  -0.009   1.634   2.372  0.0000  0.0000  0.0000
   97TMC3  CA38 1388  -0.055   1.764   2.401  0.0000  0.0000  0.0000
   97TMC3  CA39 1389  -0.145   1.788   2.503  0.0000  0.0000  0.0000
   97TMC3  CA40 1390  -0.189   1.684   2.580  0.0000  0.0000  0.0000
   97TMC3  CA41 1391  -0.143   1.555   2.562  0.0000  0.0000  0.0000
   97TMC3  CA42 1392  -0.043   1.533   2.469  0.0000  0.0000  0.0000
   97TMC3  CB43 1393   0.095   1.611   2.266  0.0000  0.0000  0.0000
   97TMC3  CB44 1394  -0.185   1.930   2.532  0.0000  0.0000  0.0000
   97TMC3  CB45 1395  -0.190   1.444   2.642  0.0000  0.0000  0.0000
   97TMC3  HA46 1396  -0.007   1.842   2.343  0.0000  0.0000  0.0000
   97TMC3  HA47 1397  -0.244   1.706   2.670  0.0000  0.0000  0.0000
   97TMC3  HA48 1398   0.014   1.441   2.458  0.0000  0.0000  0.0000
   97TMC3   O49 1399   0.175   1.703   2.242  0.0000  0.0000  0.0000
   97TMC3   O50 1400  -0.115   2.023   2.503  0.0000  0.0000  0.0000
   97TMC3   O51 1401  -0.134   1.335   2.652  0.0000  0.0000  0.0000
   98TMC2   C20 1402   0.545   1.190   2.689  0.0000  0.0000  0.0000
   98TMC2  CA21 1403   0.573   1.341   2.697  0.0000  0.0000  0.0000
   98TMC2  CA22 1404   0.498   1.418   2.785  0.0000  0.0000  0.0000
   98TMC2  CA23 1405   0.519   1.553   2.797  0.0000  0.0000  0.0000
   98TMC2  CA24 1406   0.611   1.613   2.709  0.0000  0.0000  0.0000
   98TMC2  CA25 1407   0.695   1.535   2.621  0.0000  0.0000  0.0000
   98TMC2  CA26 1408   0.668   1.396   2.612  0.0000  0.0000  0.0000
   98TMC2  CB27 1409   0.426   1.634   2.883  0.0000  0.0000  0.0000
   98TMC2  CB28 1410   0.797   1.599   2.538  0.0000  0.0000  0.0000
   98TMC2  HA29 1411   0.415   1.367   2.832  0.0000  0.0000  0.0000
   98TMC2  HA30 1412   0.624   1.721   2.716  0.0000  0.0000  0.0000
   98TMC2  HA31 1413   0.722   1.337   2.538  0.0000  0.0000  0.0000
   98TMC2  HO32 1414   0.508   1.196   2.868  0.0000  0.0000  0.0000
   98TMC2   O33 1415   0.545   1.134   2.581  0.0000  0.0000  0.0000
   98TMC2   O34 1416   0.412   1.758   2.874  0.0000  0.0000  0.0000
   98TMC2   O35 1417   0.797   1.720   2.533  0.0000  0.0000  0.0000
   98TMC2  OH36 1418   0.507   1.123   2.803  0.0000  0.0000  0.0000
   99TMC3  CA37 1419   2.068   1.634   2.852  0.0000  0.0000  0.0000
   99TMC3  CA38 1420   1.933   1.629   2.823  0.0000  0.0000  0.0000
   99TMC3  CA39 1421   1.843   1.696   2.894  0.0000  0.0000  0.0000
   99TMC3  CA40 1422   1.884   1.769   3.008  0.0000  0.0000  0.0000
   99TMC3  CA41 1423   2.017   1.787   3.036  0.0000  0.0000  0.0000
   99TMC3  CA42 1424   2.109   1.715   2.957  0.0000  0.0000  0.0000
   99TMC3  CB43 1425   2.166   1.567   2.757  0.0000  0.0000  0.0000
   99TMC3  CB44 1426   1.701   1.667   2.849  0.0000  0.0000  0.0000
   99TMC3  CB45 1427   2.071   1.863   3.155  0.0000  0.0000  0.0000
   99TMC3  HA46 1428   1.898   1.579   2.733  0.0000  0.0000  0.0000
   99TMC3  HA47 1429   1.805   1.812   3.068  0.0000  0.0000  0.0000
   99TMC3  HA48 1430   2.214   1.724   2.984  0.0000  0.0000  0.0000
   99TMC3   O49 1431   2.122   1.514   2.656  0.0000  0.0000  0.0000
   99TMC3   O50 1432   1.675   1.562   2.795  0.0000  0.0000  0.0000
   99TMC3   O51 1433   2.188   1.864   3.179  0.0000  0.0000  0.0000
  100TMC3  CA37 1434   0.633  -0.580   3.330  0.0000  0.0000  0.0000
  100TMC3  CA38 1435   0.586  -0.640   3.214  0.0000  0.0000  0.0000
  100TMC3  CA39 1436   0.570  -0.560   3.100  0.0000  0.0000  0.0000
  100TMC3  CA40 1437   0.621  -0.430   3.099  0.0000  0.0000  0.0000
  100TMC3  CA41 1438   0.671  -0.377   3.219  0.0000  0.0000  0.0000
  100TMC3  CA42 1439   0.684  -0.451   3.330  0.0000  0.0000  0.0000
  100TMC3  CB43 1440   0.626  -0.665   3.454  0.0000  0.0000  0.0000
  100TMC3  CB44 1441   0.502  -0.613   2.974  0.0000  0.0000  0.0000
  100TMC3  CB45 1442   0.736  -0.239   3.201  0.0000  0.0000  0.0000
  100TMC3  HA46 1443   0.544  -0.740   3.209  0.0000  0.0000  0.0000
  100TMC3  HA47 1444   0.628  -0.368   3.010  0.0000  0.0000  0.0000
  100TMC3  HA48 1445   0.738  -0.402   3.410  0.0000  0.0000  0.0000
  100TMC3   O49 1446   0.548  -0.761   3.453  0.0000  0.0000  0.0000
  100TMC3   O50 1447   0.481  -0.734   2.957  0.0000  0.0000  0.0000
  100TMC3   O51 1448   0.805  -0.213   3.104  0.0000  0.0000  0.0000
  101TMC3  CA37 1449   2.210  -1.034   2.520  0.0000  0.0000  0.0000
  101TMC3  CA38 1450   2.135  -1.049   2.409  0.0000  0.0000  0.0000
  101TMC3  CA39 1451   2.006  -0.990   2.407  0.0000  0.0000  0.0000
  101TMC3  CA40 1452   1.947  -0.931   2.521  0.0000  0.0000  0.0000
  101TMC3  CA41 1453   2.017  -0.935   2.640  0.0000  0.0000  0.0000
  101TMC3  CA42 1454   2.154  -0.978   2.634  0.0000  0.0000  0.0000
  101TMC3  CB43 1455   2.340  -1.100   2.536  0.0000  0.0000  0.0000
  101TMC3  CB44 1456   1.929  -0.976   2.281  0.0000  0.0000  0.0000
  101TMC3  CB45 1457   1.955  -0.861   2.757  0.0000  0.0000  0.0000
  101TMC3  HA46 1458   2.176  -1.106   2.326  0.0000  0.0000  0.0000
  101TMC3  HA47 1459   1.843  -0.899   2.516  0.0000  0.0000  0.0000
  101TMC3  HA48 1460   2.211  -0.968   2.726  0.0000  0.0000  0.0000
  101TMC3   O49 1461   2.356  -1.214   2.487  0.0000  0.0000  0.0000
  101TMC3   O50 1462   1.808  -0.984   2.292  0.0000  0.0000  0.0000
  101TMC3   O51 1463   2.016  -0.864   2.859  0.0000  0.0000  0.0000
  102TMC3  CA37 1464   0.581   0.738   2.103  0.0000  0.0000  0.0000
  102TMC3  CA38 1465   0.501   0.851   2.115  0.0000  0.0000  0.0000
  102TMC3  CA39 1466   0.365   0.846   2.082  0.0000  0.0000  0.0000
  102TMC3  CA40 1467   0.305   0.730   2.030  0.0000  0.0000  0.0000
  102TMC3  CA41 1468   0.390   0.618   2.007  0.0000  0.0000  0.0000
  102TMC3  CA42 1469   0.524   0.627   2.039  0.0000  0.0000  0.0000
  102TMC3  CB43 1470   0.726   0.732   2.131  0.0000  0.0000  0.0000
  102TMC3  CB44 1471   0.274   0.967   2.078  0.0000  0.0000  0.0000
  102TMC3  CB45 1472   0.355   0.477   1.965  0.0000  0.0000  0.0000
  102TMC3  HA46 1473   0.536   0.942   2.164  0.0000  0.0000  0.0000
  102TMC3  HA47 1474   0.200   0.725   2.002  0.0000  0.0000  0.0000
  102TMC3  HA48 1475   0.600   0.554   2.012  0.0000  0.0000  0.0000
  102TMC3   O49 1476   0.776   0.628   2.172  0.0000  0.0000  0.0000
  102TMC3   O50 1477   0.149   0.965   2.081  0.0000  0.0000  0.0000
  102TMC3   O51 1478   0.433   0.387   1.971  0.0000  0.0000  0.0000
  103TMC3  CA37 1479   3.704   1.278   2.361  0.0000  0.0000  0.0000
  103TMC3  CA38 1480   3.691   1.233   2.493  0.0000  0.0000  0.0000
  103TMC3  CA39 1481   3.633   1.109   2.515  0.0000  0.0000  0.0000
  103TMC3  CA40 1482   3.573   1.031   2.414  0.0000  0.0000  0.0000
  103TMC3  CA41 1483   3.592   1.070   2.284  0.0000  0.0000  0.0000
  103TMC3  CA42 1484   3.659   1.194   2.259  0.0000  0.0000  0.0000
  103TMC3  CB43 1485   3.749   1.417   2.316  0.0000  0.0000  0.0000
  103TMC3  CB44 1486   3.639   1.051   2.649  0.0000  0.0000  0.0000
  103TMC3  CB45 1487   3.524   0.986   2.176  0.0000  0.0000  0.0000
  103TMC3  HA46 1488   3.730   1.296   2.573  0.0000  0.0000  0.0000
  103TMC3  HA47 1489   3.524   0.937   2.440  0.0000  0.0000  0.0000
  103TMC3  HA48 1490   3.662   1.228   2.156  0.0000  0.0000  0.0000
  103TMC3   O49 1491   3.766   1.442   2.196  0.0000  0.0000  0.0000
  103TMC3   O50 1492   3.659   0.933   2.678  0.0000  0.0000  0.0000
  103TMC3   O51 1493   3.570   0.985   2.066  0.0000  0.0000  0.0000
  104TMC3  CA37 1494   1.480   0.634   2.162  0.0000  0.0000  0.0000
  104TMC3  CA38 1495   1.430   0.521   2.221  0.0000  0.0000  0.0000
  104TMC3  CA39 1496   1.504   0.403   2.223  0.0000  0.0000  0.0000
  104TMC3  CA40 1497   1.621   0.398   2.150  0.0000  0.0000  0.0000
  104TMC3  CA41 1498   1.672   0.504   2.096  0.0000  0.0000  0.0000
  104TMC3  CA42 1499   1.606   0.626   2.106  0.0000  0.0000  0.0000
  104TMC3  CB43 1500   1.396   0.757   2.151  0.0000  0.0000  0.0000
  104TMC3  CB44 1501   1.453   0.286   2.302  0.0000  0.0000  0.0000
  104TMC3  CB45 1502   1.795   0.504   2.013  0.0000  0.0000  0.0000
  104TMC3  HA46 1503   1.343   0.530   2.285  0.0000  0.0000  0.0000
  104TMC3  HA47 1504   1.677   0.305   2.140  0.0000  0.0000  0.0000
  104TMC3  HA48 1505   1.646   0.719   2.065  0.0000  0.0000  0.0000
  104TMC3   O49 1506   1.453   0.863   2.128  0.0000  0.0000  0.0000
  104TMC3   O50 1507   1.395   0.307   2.406  0.0000  0.0000  0.0000
  104TMC3   O51 1508   1.860   0.607   2.003  0.0000  0.0000  0.0000
  105TMC3  CA37 1509  -0.046   1.157   3.503  0.0000  0.0000  0.0000
  105TMC3  CA38 1510  -0.179   1.183   3.470  0.0000  0.0000  0.0000
  105TMC3  CA39 1511  -0.225   1.183   3.339  0.0000  0.0000  0.0000
  105TMC3  CA40 1512  -0.139   1.157   3.233  0.0000  0.0000  0.0000
  105TMC3  CA41 1513  -0.006   1.137   3.266  0.0000  0.0000  0.0000
  105TMC3  CA42 1514   0.043   1.134   3.396  0.0000  0.0000  0.0000
  105TMC3  CB43 1515   0.002   1.166   3.641  0.0000  0.0000  0.0000
  105TMC3  CB44 1516  -0.367   1.221   3.308  0.0000  0.0000  0.0000
  105TMC3  CB45 1517   0.096   1.125   3.156  0.0000  0.0000  0.0000
  105TMC3  HA46 1518  -0.244   1.219   3.549  0.0000  0.0000  0.0000
  105TMC3  HA47 1519  -0.180   1.169   3.133  0.0000  0.0000  0.0000
  105TMC3  HA48 1520   0.148   1.114   3.414  0.0000  0.0000  0.0000
  105TMC3   O49 1521   0.117   1.184   3.667  0.0000  0.0000  0.0000
  105TMC3   O50 1522  -0.409   1.204   3.197  0.0000  0.0000  0.0000
  105TMC3   O51 1523   0.210   1.081   3.177  0.0000  0.0000  0.0000
  106TMC3  CA37 1524   1.188   2.325   3.454  0.0000  0.0000  0.0000
  106TMC3  CA38 1525   1.075   2.305   3.539  0.0000  0.0000  0.0000
  106TMC3  CA39 1526   1.021   2.185   3.562  0.0000  0.0000  0.0000
  106TMC3  CA40 1527   1.081   2.074   3.511  0.0000  0.0000  0.0000
  106TMC3  CA41 1528   1.200   2.082   3.435  0.0000  0.0000  0.0000
  106TMC3  CA42 1529   1.253   2.212   3.400  0.0000  0.0000  0.0000
  106TMC3  CB43 1530   1.238   2.462   3.429  0.0000  0.0000  0.0000
  106TMC3  CB44 1531   0.902   2.182   3.662  0.0000  0.0000  0.0000
  106TMC3  CB45 1532   1.263   1.952   3.390  0.0000  0.0000  0.0000
  106TMC3  HA46 1533   1.041   2.388   3.600  0.0000  0.0000  0.0000
  106TMC3  HA47 1534   1.037   1.976   3.530  0.0000  0.0000  0.0000
  106TMC3  HA48 1535   1.331   2.221   3.325  0.0000  0.0000  0.0000
  106TMC3   O49 1536   1.223   2.556   3.507  0.0000  0.0000  0.0000
  106TMC3   O50 1537   0.833   2.284   3.677  0.0000  0.0000  0.0000
  106TMC3   O51 1538   1.316   1.946   3.278  0.0000  0.0000  0.0000
  107TMC3  CA37 1539   2.914  -0.729   2.442  0.0000  0.0000  0.0000
  107TMC3  CA38 1540   2.823  -0.821   2.381  0.0000  0.0000  0.0000
  107TMC3  CA39 1541   2.693  -0.777   2.342  0.0000  0.0000  0.0000
  107TMC3  CA40 1542   2.651  -0.648   2.372  0.0000  0.0000  0.0000
  107TMC3  CA41 1543   2.744  -0.556   2.429  0.0000  0.0000  0.0000
  107TMC3  CA42 1544   2.873  -0.600   2.456  0.0000  0.0000  0.0000
  107TMC3  CB43 1545   3.047  -0.776   2.487  0.0000  0.0000  0.0000
  107TMC3  CB44 1546   2.595  -0.873   2.272  0.0000  0.0000  0.0000
  107TMC3  CB45 1547   2.705  -0.417   2.461  0.0000  0.0000  0.0000
  107TMC3  HA46 1548   2.841  -0.926   2.359  0.0000  0.0000  0.0000
  107TMC3  HA47 1549   2.550  -0.613   2.349  0.0000  0.0000  0.0000
  107TMC3  HA48 1550   2.943  -0.526   2.496  0.0000  0.0000  0.0000
  107TMC3   O49 1551   3.101  -0.876   2.433  0.0000  0.0000  0.0000
  107TMC3   O50 1552   2.625  -0.994   2.260  0.0000  0.0000  0.0000
  107TMC3   O51 1553   2.594  -0.381   2.424  0.0000  0.0000  0.0000
  108TMC2   C20 1554  -0.668   1.843   2.883  0.0000  0.0000  0.0000
  108TMC2  CA21 1555  -0.536   1.901   2.928  0.0000  0.0000  0.0000
  108TMC2  CA22 1556  -0.429   1.808   2.933  0.0000  0.0000  0.0000
  108TMC2  CA23 1557  -0.305   1.852   2.986  0.0000  0.0000  0.0000
  108TMC2  CA24 1558  -0.289   1.984   3.025  0.0000  0.0000  0.0000
  108TMC2  CA25 1559  -0.394   2.080   3.012  0.0000  0.0000  0.0000
  108TMC2  CA26 1560  -0.523   2.035   2.968  0.0000  0.0000  0.0000
  108TMC2  CB27 1561  -0.180   1.764   2.979  0.0000  0.0000  0.0000
  108TMC2  CB28 1562  -0.390   2.224   3.057  0.0000  0.0000  0.0000
  108TMC2  HA29 1563  -0.440   1.703   2.907  0.0000  0.0000  0.0000
  108TMC2  HA30 1564  -0.194   2.020   3.064  0.0000  0.0000  0.0000
  108TMC2  HA31 1565  -0.607   2.103   2.972  0.0000  0.0000  0.0000
  108TMC2  HO32 1566  -0.718   1.990   2.961  0.0000  0.0000  0.0000
  108TMC2   O33 1567  -0.688   1.731   2.834  0.0000  0.0000  0.0000
  108TMC2   O34 1568  -0.174   1.666   2.898  0.0000  0.0000  0.0000
  108TMC2   O35 1569  -0.495   2.291   3.062  0.0000  0.0000  0.0000
  108TMC2  OH36 1570  -0.766   1.924   2.908  0.0000  0.0000  0.0000
  109TMC3  CA37 1571   0.189  -0.223   1.906  0.0000  0.0000  0.0000
  109TMC3  CA38 1572   0.281  -0.300   1.978  0.0000  0.0000  0.0000
  109TMC3  CA39 1573   0.263  -0.437   2.002  0.0000  0.0000  0.0000
  109TMC3  CA40 1574   0.146  -0.498   1.959  0.0000  0.0000  0.0000
  109TMC3  CA41 1575   0.047  -0.423   1.895  0.0000  0.0000  0.0000
  109TMC3  CA42 1576   0.076  -0.290   1.857  0.0000  0.0000  0.0000
  109TMC3  CB43 1577   0.204  -0.076   1.896  0.0000  0.0000  0.0000
  109TMC3  CB44 1578   0.374  -0.520   2.059  0.0000  0.0000  0.0000
  109TMC3  CB45 1579  -0.069  -0.504   1.840  0.0000  0.0000  0.0000
  109TMC3  HA46 1580   0.363  -0.254   2.032  0.0000  0.0000  0.0000
  109TMC3  HA47 1581   0.124  -0.605   1.965  0.0000  0.0000  0.0000
  109TMC3  HA48 1582   0.008  -0.234   1.795  0.0000  0.0000  0.0000
  109TMC3   O49 1583   0.305  -0.020   1.942  0.0000  0.0000  0.0000
  109TMC3   O50 1584   0.480  -0.469   2.073  0.0000  0.0000  0.0000
  109TMC3   O51 1585  -0.113  -0.506   1.725  0.0000  0.0000  0.0000
  110TMC2   C20 1586   0.738   1.214   4.242  0.0000  0.0000  0.0000
  110TMC2  CA21 1587   0.700   1.263   4.111  0.0000  0.0000  0.0000
  110TMC2  CA22 1588   0.708   1.399   4.073  0.0000  0.0000  0.0000
  110TMC2  CA23 1589   0.672   1.427   3.940  0.0000  0.0000  0.0000
  110TMC2  CA24 1590   0.620   1.330   3.860  0.0000  0.0000  0.0000
  110TMC2  CA25 1591   0.611   1.200   3.891  0.0000  0.0000  0.0000
  110TMC2  CA26 1592   0.647   1.164   4.021  0.0000  0.0000  0.0000
  110TMC2  CB27 1593   0.686   1.565   3.885  0.0000  0.0000  0.0000
  110TMC2  CB28 1594   0.555   1.103   3.795  0.0000  0.0000  0.0000
  110TMC2  HA29 1595   0.747   1.474   4.142  0.0000  0.0000  0.0000
  110TMC2  HA30 1596   0.584   1.356   3.761  0.0000  0.0000  0.0000
  110TMC2  HA31 1597   0.636   1.062   4.057  0.0000  0.0000  0.0000
  110TMC2  HO32 1598   0.873   1.354   4.261  0.0000  0.0000  0.0000
  110TMC2   O33 1599   0.686   1.120   4.300  0.0000  0.0000  0.0000
  110TMC2   O34 1600   0.723   1.578   3.771  0.0000  0.0000  0.0000
  110TMC2   O35 1601   0.499   1.004   3.840  0.0000  0.0000  0.0000
  110TMC2  OH36 1602   0.827   1.289   4.317  0.0000  0.0000  0.0000
  111TMC3  CA37 1603   3.601   1.862   2.084  0.0000  0.0000  0.0000
  111TMC3  CA38 1604   3.485   1.917   2.124  0.0000  0.0000  0.0000
  111TMC3  CA39 1605   3.373   1.835   2.135  0.0000  0.0000  0.0000
  111TMC3  CA40 1606   3.379   1.712   2.070  0.0000  0.0000  0.0000
  111TMC3  CA41 1607   3.496   1.662   2.022  0.0000  0.0000  0.0000
  111TMC3  CA42 1608   3.611   1.735   2.032  0.0000  0.0000  0.0000
  111TMC3  CB43 1609   3.721   1.953   2.078  0.0000  0.0000  0.0000
  111TMC3  CB44 1610   3.242   1.883   2.206  0.0000  0.0000  0.0000
  111TMC3  CB45 1611   3.506   1.530   1.959  0.0000  0.0000  0.0000
  111TMC3  HA46 1612   3.503   2.015   2.167  0.0000  0.0000  0.0000
  111TMC3  HA47 1613   3.287   1.653   2.071  0.0000  0.0000  0.0000
  111TMC3  HA48 1614   3.709   1.696   2.004  0.0000  0.0000  0.0000
  111TMC3   O49 1615   3.746   2.012   1.974  0.0000  0.0000  0.0000
  111TMC3   O50 1616   3.142   1.818   2.226  0.0000  0.0000  0.0000
  111TMC3   O51 1617   3.577   1.515   1.860  0.0000  0.0000  0.0000
  112TMC3  CA37 1618   2.328   2.230   3.074  0.0000  0.0000  0.0000
  112TMC3  CA38 1619   2.190   2.274   3.074  0.0000  0.0000  0.0000
  112TMC3  CA39 1620   2.100   2.234   2.975  0.0000  0.0000  0.0000
  112TMC3  CA40 1621   2.148   2.139   2.878  0.0000  0.0000  0.0000
  112TMC3  CA41 1622   2.280   2.097   2.876  0.0000  0.0000  0.0000
  112TMC3  CA42 1623   2.370   2.140   2.975  0.0000  0.0000  0.0000
  112TMC3  CB43 1624   2.419   2.267   3.187  0.0000  0.0000  0.0000
  112TMC3  CB44 1625   1.955   2.250   2.986  0.0000  0.0000  0.0000
  112TMC3  CB45 1626   2.328   1.997   2.770  0.0000  0.0000  0.0000
  112TMC3  HA46 1627   2.156   2.336   3.156  0.0000  0.0000  0.0000
  112TMC3  HA47 1628   2.085   2.115   2.792  0.0000  0.0000  0.0000
  112TMC3  HA48 1629   2.461   2.081   2.980  0.0000  0.0000  0.0000
  112TMC3   O49 1630   2.361   2.299   3.290  0.0000  0.0000  0.0000
  112TMC3   O50 1631   1.903   2.352   3.028  0.0000  0.0000  0.0000
  112TMC3   O51 1632   2.375   1.898   2.814  0.0000  0.0000  0.0000
  113TMC3  CA37 1633   3.374   1.487   3.232  0.0000  0.0000  0.0000
  113TMC3  CA38 1634   3.457   1.555   3.326  0.0000  0.0000  0.0000
  113TMC3  CA39 1635   3.423   1.686   3.359  0.0000  0.0000  0.0000
  113TMC3  CA40 1636   3.329   1.763   3.289  0.0000  0.0000  0.0000
  113TMC3  CA41 1637   3.247   1.704   3.195  0.0000  0.0000  0.0000
  113TMC3  CA42 1638   3.261   1.564   3.181  0.0000  0.0000  0.0000
  113TMC3  CB43 1639   3.403   1.347   3.179  0.0000  0.0000  0.0000
  113TMC3  CB44 1640   3.519   1.751   3.457  0.0000  0.0000  0.0000
  113TMC3  CB45 1641   3.138   1.779   3.137  0.0000  0.0000  0.0000
  113TMC3  HA46 1642   3.549   1.516   3.368  0.0000  0.0000  0.0000
  113TMC3  HA47 1643   3.310   1.866   3.317  0.0000  0.0000  0.0000
  113TMC3  HA48 1644   3.195   1.510   3.114  0.0000  0.0000  0.0000
  113TMC3   O49 1645   3.315   1.294   3.108  0.0000  0.0000  0.0000
  113TMC3   O50 1646   3.554   1.871   3.446  0.0000  0.0000  0.0000
  113TMC3   O51 1647   3.092   1.881   3.190  0.0000  0.0000  0.0000
  114TMC3  CA37 1648   1.943   2.482   1.952  0.0000  0.0000  0.0000
  114TMC3  CA38 1649   2.008   2.419   2.061  0.0000  0.0000  0.0000
  114TMC3  CA39 1650   1.939   2.335   2.150  0.0000  0.0000  0.0000
  114TMC3  CA40 1651   1.804   2.305   2.131  0.0000  0.0000  0.0000
  114TMC3  CA41 1652   1.740   2.371   2.024  0.0000  0.0000  0.0000
  114TMC3  CA42 1653   1.808   2.456   1.940  0.0000  0.0000  0.0000
  114TMC3  CB43 1654   2.002   2.577   1.853  0.0000  0.0000  0.0000
  114TMC3  CB44 1655   2.005   2.277   2.268  0.0000  0.0000  0.0000
  114TMC3  CB45 1656   1.595   2.348   2.002  0.0000  0.0000  0.0000
  114TMC3  HA46 1657   2.114   2.434   2.076  0.0000  0.0000  0.0000
  114TMC3  HA47 1658   1.765   2.219   2.184  0.0000  0.0000  0.0000
  114TMC3  HA48 1659   1.751   2.505   1.861  0.0000  0.0000  0.0000
  114TMC3   O49 1660   1.938   2.644   1.770  0.0000  0.0000  0.0000
  114TMC3   O50 1661   1.950   2.198   2.339  0.0000  0.0000  0.0000
  114TMC3   O51 1662   1.538   2.398   1.908  0.0000  0.0000  0.0000
  115TMC3  CA37 1663   0.224   1.988   2.681  0.0000  0.0000  0.0000
  115TMC3  CA38 1664   0.339   2.072   2.672  0.0000  0.0000  0.0000
  115TMC3  CA39 1665   0.459   2.032   2.603  0.0000  0.0000  0.0000
  115TMC3  CA40 1666   0.458   1.904   2.549  0.0000  0.0000  0.0000
  115TMC3  CA41 1667   0.342   1.821   2.552  0.0000  0.0000  0.0000
  115TMC3  CA42 1668   0.225   1.863   2.619  0.0000  0.0000  0.0000
  115TMC3  CB43 1669   0.106   2.028   2.760  0.0000  0.0000  0.0000
  115TMC3  CB44 1670   0.588   2.113   2.603  0.0000  0.0000  0.0000
  115TMC3  CB45 1671   0.347   1.681   2.494  0.0000  0.0000  0.0000
  115TMC3  HA46 1672   0.342   2.175   2.707  0.0000  0.0000  0.0000
  115TMC3  HA47 1673   0.550   1.860   2.511  0.0000  0.0000  0.0000
  115TMC3  HA48 1674   0.134   1.803   2.621  0.0000  0.0000  0.0000
  115TMC3   O49 1675   0.009   1.954   2.773  0.0000  0.0000  0.0000
  115TMC3   O50 1676   0.696   2.064   2.614  0.0000  0.0000  0.0000
  115TMC3   O51 1677   0.264   1.602   2.525  0.0000  0.0000  0.0000
  116TMC3  CA37 1678   0.064   2.528   2.777  0.0000  0.0000  0.0000
  116TMC3  CA38 1679   0.082   2.602   2.894  0.0000  0.0000  0.0000
  116TMC3  CA39 1680  -0.034   2.645   2.963  0.0000  0.0000  0.0000
  116TMC3  CA40 1681  -0.163   2.612   2.925  0.0000  0.0000  0.0000
  116TMC3  CA41 1682  -0.183   2.541   2.804  0.0000  0.0000  0.0000
  116TMC3  CA42 1683  -0.065   2.497   2.729  0.0000  0.0000  0.0000
  116TMC3  CB43 1684   0.177   2.487   2.693  0.0000  0.0000  0.0000
  116TMC3  CB44 1685  -0.015   2.741   3.086  0.0000  0.0000  0.0000
  116TMC3  CB45 1686  -0.313   2.478   2.778  0.0000  0.0000  0.0000
  116TMC3  HA46 1687   0.182   2.624   2.931  0.0000  0.0000  0.0000
  116TMC3  HA47 1688  -0.250   2.639   2.985  0.0000  0.0000  0.0000
  116TMC3  HA48 1689  -0.071   2.415   2.658  0.0000  0.0000  0.0000
  116TMC3   O49 1690   0.290   2.475   2.741  0.0000  0.0000  0.0000
  116TMC3   O50 1691  -0.095   2.827   3.094  0.0000  0.0000  0.0000
  116TMC3   O51 1692  -0.401   2.466   2.860  0.0000  0.0000  0.0000
  117TMC3  CA37 1693   0.299  -0.582   3.745  0.0000  0.0000  0.0000
  117TMC3  CA38 1694   0.346  -0.600   3.878  0.0000  0.0000  0.0000
  117TMC3  CA39 1695   0.299  -0.707   3.950  0.0000  0.0000  0.0000
  117TMC3  CA40 1696   0.200  -0.789   3.895  0.0000  0.0000  0.0000
  117TMC3  CA41 1697   0.144  -0.765   3.771  0.0000  0.0000  0.0000
  117TMC3  CA42 1698   0.197  -0.661   3.693  0.0000  0.0000  0.0000
  117TMC3  CB43 1699   0.346  -0.468   3.663  0.0000  0.0000  0.0000
  117TMC3  CB44 1700   0.345  -0.742   4.086  0.0000  0.0000  0.0000
  117TMC3  CB45 1701   0.049  -0.850   3.713  0.0000  0.0000  0.0000
  117TMC3  HA46 1702   0.417  -0.528   3.917  0.0000  0.0000  0.0000
  117TMC3  HA47 1703   0.170  -0.877   3.952  0.0000  0.0000  0.0000
  117TMC3  HA48 1704   0.149  -0.636   3.599  0.0000  0.0000  0.0000
  117TMC3   O49 1705   0.446  -0.405   3.702  0.0000  0.0000  0.0000
  117TMC3   O50 1706   0.273  -0.814   4.159  0.0000  0.0000  0.0000
  117TMC3   O51 1707  -0.047  -0.805   3.656  0.0000  0.0000  0.0000
  118TMC3  CA37 1708   1.006   2.442   2.811  0.0000  0.0000  0.0000
  118TMC3  CA38 1709   1.074   2.454   2.690  0.0000  0.0000  0.0000
  118TMC3  CA39 1710   1.099   2.348   2.612  0.0000  0.0000  0.0000
  118TMC3  CA40 1711   1.065   2.216   2.660  0.0000  0.0000  0.0000
  118TMC3  CA41 1712   1.008   2.204   2.785  0.0000  0.0000  0.0000
  118TMC3  CA42 1713   0.968   2.315   2.853  0.0000  0.0000  0.0000
  118TMC3  CB43 1714   0.973   2.565   2.893  0.0000  0.0000  0.0000
  118TMC3  CB44 1715   1.147   2.367   2.474  0.0000  0.0000  0.0000
  118TMC3  CB45 1716   0.990   2.061   2.837  0.0000  0.0000  0.0000
  118TMC3  HA46 1717   1.089   2.551   2.643  0.0000  0.0000  0.0000
  118TMC3  HA47 1718   1.108   2.128   2.615  0.0000  0.0000  0.0000
  118TMC3  HA48 1719   0.910   2.308   2.944  0.0000  0.0000  0.0000
  118TMC3   O49 1720   0.974   2.673   2.841  0.0000  0.0000  0.0000
  118TMC3   O50 1721   1.211   2.464   2.438  0.0000  0.0000  0.0000
  118TMC3   O51 1722   1.035   1.966   2.772  0.0000  0.0000  0.0000
  119TMC1    C1 1723   2.134  -0.021   2.892  0.0000  0.0000  0.0000
  119TMC1    C2 1724   1.835   0.172   3.239  0.0000  0.0000  0.0000
  119TMC1   CA3 1725   2.019  -0.032   2.989  0.0000  0.0000  0.0000
  119TMC1   CA4 1726   1.979   0.080   3.058  0.0000  0.0000  0.0000
  119TMC1   CA5 1727   1.887   0.055   3.165  0.0000  0.0000  0.0000
  119TMC1   CA6 1728   1.822  -0.069   3.181  0.0000  0.0000  0.0000
  119TMC1   CA7 1729   1.865  -0.179   3.106  0.0000  0.0000  0.0000
  119TMC1   CA8 1730   1.956  -0.158   3.007  0.0000  0.0000  0.0000
  119TMC1   CB9 1731   1.791  -0.313   3.125  0.0000  0.0000  0.0000
  119TMC1  HA10 1732   1.976  -0.242   2.942  0.0000  0.0000  0.0000
  119TMC1  HA11 1733   2.023   0.177   3.040  0.0000  0.0000  0.0000
  119TMC1  HA12 1734   1.748  -0.102   3.252  0.0000  0.0000  0.0000
  119TMC1  HO13 1735   2.093  -0.197   2.849  0.0000  0.0000  0.0000
  119TMC1  HO14 1736   1.761   0.058   3.368  0.0000  0.0000  0.0000
  119TMC1   O15 1737   2.190   0.086   2.865  0.0000  0.0000  0.0000
  119TMC1   O16 1738   1.852   0.283   3.194  0.0000  0.0000  0.0000
  119TMC1   O17 1739   1.743  -0.338   3.233  0.0000  0.0000  0.0000
  119TMC1  OH18 1740   2.149  -0.127   2.811  0.0000  0.0000  0.0000
  119TMC1  OH19 1741   1.751   0.150   3.340  0.0000  0.0000  0.0000
  120TMC2   C20 1742   3.713   1.600   3.049  0.0000  0.0000  0.0000
  120TMC2  CA21 1743   3.634   1.640   2.935  0.0000  0.0000  0.0000
  120TMC2  CA22 1744   3.597   1.559   2.833  0.0000  0.0000  0.0000
  120TMC2  CA23 1745   3.513   1.598   2.728  0.0000  0.0000  0.0000
  120TMC2  CA24 1746   3.465   1.729   2.731  0.0000  0.0000  0.0000
  120TMC2  CA25 1747   3.510   1.819   2.830  0.0000  0.0000  0.0000
  120TMC2  CA26 1748   3.590   1.773   2.930  0.0000  0.0000  0.0000
  120TMC2  CB27 1749   3.454   1.496   2.629  0.0000  0.0000  0.0000
  120TMC2  CB28 1750   3.461   1.960   2.829  0.0000  0.0000  0.0000
  120TMC2  HA29 1751   3.629   1.455   2.839  0.0000  0.0000  0.0000
  120TMC2  HA30 1752   3.389   1.759   2.660  0.0000  0.0000  0.0000
  120TMC2  HA31 1753   3.606   1.835   3.018  0.0000  0.0000  0.0000
  120TMC2  HO32 1754   3.806   1.489   2.934  0.0000  0.0000  0.0000
  120TMC2   O33 1755   3.705   1.652   3.157  0.0000  0.0000  0.0000
  120TMC2   O34 1756   3.464   1.375   2.638  0.0000  0.0000  0.0000
  120TMC2   O35 1757   3.382   1.998   2.744  0.0000  0.0000  0.0000
  120TMC2  OH36 1758   3.796   1.490   3.031  0.0000  0.0000  0.0000
  121TMC1    C1 1759   0.116  -0.717   2.926  0.0000  0.0000  0.0000
  121TMC1    C2 1760   0.388  -1.042   2.685  0.0000  0.0000  0.0000
  121TMC1   CA3 1761   0.140  -0.789   2.805  0.0000  0.0000  0.0000
  121TMC1   CA4 1762   0.233  -0.888   2.803  0.0000  0.0000  0.0000
  121TMC1   CA5 1763   0.273  -0.946   2.687  0.0000  0.0000  0.0000
  121TMC1   CA6 1764   0.199  -0.914   2.571  0.0000  0.0000  0.0000
  121TMC1   CA7 1765   0.099  -0.820   2.572  0.0000  0.0000  0.0000
  121TMC1   CA8 1766   0.072  -0.755   2.688  0.0000  0.0000  0.0000
  121TMC1   CB9 1767   0.027  -0.788   2.442  0.0000  0.0000  0.0000
  121TMC1  HA10 1768   0.001  -0.672   2.687  0.0000  0.0000  0.0000
  121TMC1  HA11 1769   0.294  -0.916   2.889  0.0000  0.0000  0.0000
  121TMC1  HA12 1770   0.238  -0.963   2.482  0.0000  0.0000  0.0000
  121TMC1  HO13 1771   0.166  -0.870   3.009  0.0000  0.0000  0.0000
  121TMC1  HO14 1772   0.310  -1.125   2.535  0.0000  0.0000  0.0000
  121TMC1   O15 1773   0.063  -0.606   2.915  0.0000  0.0000  0.0000
  121TMC1   O16 1774   0.473  -1.041   2.779  0.0000  0.0000  0.0000
  121TMC1   O17 1775   0.010  -0.876   2.359  0.0000  0.0000  0.0000
  121TMC1  OH18 1776   0.157  -0.777   3.038  0.0000  0.0000  0.0000
  121TMC1  OH19 1777   0.396  -1.125   2.579  0.0000  0.0000  0.0000
  122TMC1    C1 1778   3.114   0.311   2.683  0.0000  0.0000  0.0000
  122TMC1    C2 1779   3.526   0.165   2.431  0.0000  0.0000  0.0000
  122TMC1   CA3 1780   3.191   0.207   2.616  0.0000  0.0000  0.0000
  122TMC1   CA4 1781   3.303   0.237   2.534  0.0000  0.0000  0.0000
  122TMC1   CA5 1782   3.393   0.138   2.494  0.0000  0.0000  0.0000
  122TMC1   CA6 1783   3.365   0.007   2.527  0.0000  0.0000  0.0000
  122TMC1   CA7 1784   3.248  -0.037   2.585  0.0000  0.0000  0.0000
  122TMC1   CA8 1785   3.164   0.066   2.637  0.0000  0.0000  0.0000
  122TMC1   CB9 1786   3.238  -0.185   2.615  0.0000  0.0000  0.0000
  122TMC1  HA10 1787   3.078   0.038   2.696  0.0000  0.0000  0.0000
  122TMC1  HA11 1788   3.332   0.339   2.508  0.0000  0.0000  0.0000
  122TMC1  HA12 1789   3.445  -0.062   2.499  0.0000  0.0000  0.0000
  122TMC1  HO13 1790   3.261   0.411   2.654  0.0000  0.0000  0.0000
  122TMC1  HO14 1791   3.450   0.323   2.375  0.0000  0.0000  0.0000
  122TMC1   O15 1792   2.999   0.299   2.727  0.0000  0.0000  0.0000
  122TMC1   O16 1793   3.625   0.090   2.436  0.0000  0.0000  0.0000
  122TMC1   O17 1794   3.330  -0.259   2.588  0.0000  0.0000  0.0000
  122TMC1  OH18 1795   3.176   0.427   2.699  0.0000  0.0000  0.0000
  122TMC1  OH19 1796   3.540   0.287   2.378  0.0000  0.0000  0.0000
  123TMC1    C1 1797   2.987   2.654   2.915  0.0000  0.0000  0.0000
  123TMC1    C2 1798   3.300   2.422   2.609  0.0000  0.0000  0.0000
  123TMC1   CA3 1799   3.063   2.531   2.886  0.0000  0.0000  0.0000
  123TMC1   CA4 1800   3.148   2.532   2.772  0.0000  0.0000  0.0000
  123TMC1   CA5 1801   3.214   2.418   2.728  0.0000  0.0000  0.0000
  123TMC1   CA6 1802   3.206   2.301   2.809  0.0000  0.0000  0.0000
  123TMC1   CA7 1803   3.126   2.297   2.929  0.0000  0.0000  0.0000
  123TMC1   CA8 1804   3.051   2.410   2.960  0.0000  0.0000  0.0000
  123TMC1   CB9 1805   3.120   2.168   3.006  0.0000  0.0000  0.0000
  123TMC1  HA10 1806   2.978   2.401   3.041  0.0000  0.0000  0.0000
  123TMC1  HA11 1807   3.158   2.623   2.714  0.0000  0.0000  0.0000
  123TMC1  HA12 1808   3.271   2.219   2.782  0.0000  0.0000  0.0000
  123TMC1  HO13 1809   2.831   2.544   2.948  0.0000  0.0000  0.0000
  123TMC1  HO14 1810   3.336   2.244   2.635  0.0000  0.0000  0.0000
  123TMC1   O15 1811   3.031   2.762   2.913  0.0000  0.0000  0.0000
  123TMC1   O16 1812   3.323   2.528   2.557  0.0000  0.0000  0.0000
  123TMC1   O17 1813   3.219   2.099   3.022  0.0000  0.0000  0.0000
  123TMC1  OH18 1814   2.856   2.637   2.961  0.0000  0.0000  0.0000
  123TMC1  OH19 1815   3.361   2.307   2.565  0.0000  0.0000  0.0000
  124TMC3  CA37 1816   0.885  -1.033   3.291  0.0000  0.0000  0.0000
  124TMC3  CA38 1817   0.753  -1.063   3.327  0.0000  0.0000  0.0000
  124TMC3  CA39 1818   0.717  -1.051   3.460  0.0000  0.0000  0.0000
  124TMC3  CA40 1819   0.809  -1.004   3.553  0.0000  0.0000  0.0000
  124TMC3  CA41 1820   0.936  -0.963   3.516  0.0000  0.0000  0.0000
  124TMC3  CA42 1821   0.971  -0.977   3.384  0.0000  0.0000  0.0000
  124TMC3  CB43 1822   0.942  -1.074   3.159  0.0000  0.0000  0.0000
  124TMC3  CB44 1823   0.575  -1.090   3.511  0.0000  0.0000  0.0000
  124TMC3  CB45 1824   1.037  -0.903   3.608  0.0000  0.0000  0.0000
  124TMC3  HA46 1825   0.695  -1.118   3.253  0.0000  0.0000  0.0000
  124TMC3  HA47 1826   0.788  -0.996   3.659  0.0000  0.0000  0.0000
  124TMC3  HA48 1827   1.072  -0.953   3.352  0.0000  0.0000  0.0000
  124TMC3   O49 1828   1.058  -1.057   3.135  0.0000  0.0000  0.0000
  124TMC3   O50 1829   0.486  -1.108   3.429  0.0000  0.0000  0.0000
  124TMC3   O51 1830   1.088  -0.793   3.585  0.0000  0.0000  0.0000
  125TMC2   C20 1831   4.228   0.941   3.772  0.0000  0.0000  0.0000
  125TMC2  CA21 1832   4.132   1.030   3.843  0.0000  0.0000  0.0000
  125TMC2  CA22 1833   4.040   1.112   3.779  0.0000  0.0000  0.0000
  125TMC2  CA23 1834   3.963   1.207   3.842  0.0000  0.0000  0.0000
  125TMC2  CA24 1835   3.966   1.209   3.981  0.0000  0.0000  0.0000
  125TMC2  CA25 1836   4.061   1.131   4.046  0.0000  0.0000  0.0000
  125TMC2  CA26 1837   4.152   1.053   3.981  0.0000  0.0000  0.0000
  125TMC2  CB27 1838   3.882   1.302   3.768  0.0000  0.0000  0.0000
  125TMC2  CB28 1839   4.086   1.146   4.192  0.0000  0.0000  0.0000
  125TMC2  HA29 1840   4.040   1.110   3.670  0.0000  0.0000  0.0000
  125TMC2  HA30 1841   3.894   1.260   4.045  0.0000  0.0000  0.0000
  125TMC2  HA31 1842   4.219   0.997   4.046  0.0000  0.0000  0.0000
  125TMC2  HO32 1843   4.229   0.809   3.916  0.0000  0.0000  0.0000
  125TMC2   O33 1844   4.275   0.979   3.664  0.0000  0.0000  0.0000
  125TMC2   O34 1845   3.841   1.274   3.657  0.0000  0.0000  0.0000
  125TMC2   O35 1846   4.197   1.126   4.246  0.0000  0.0000  0.0000
  125TMC2  OH36 1847   4.266   0.825   3.827  0.0000  0.0000  0.0000
  126TMC3  CA37 1848  -0.201   0.648   3.581  0.0000  0.0000  0.0000
  126TMC3  CA38 1849  -0.298   0.691   3.491  0.0000  0.0000  0.0000
  126TMC3  CA39 1850  -0.276   0.781   3.388  0.0000  0.0000  0.0000
  126TMC3  CA40 1851  -0.141   0.832   3.372  0.0000  0.0000  0.0000
  126TMC3  CA41 1852  -0.040   0.772   3.444  0.0000  0.0000  0.0000
  126TMC3  CA42 1853  -0.072   0.682   3.551  0.0000  0.0000  0.0000
  126TMC3  CB43 1854  -0.244   0.555   3.688  0.0000  0.0000  0.0000
  126TMC3  CB44 1855  -0.401   0.832   3.329  0.0000  0.0000  0.0000
  126TMC3  CB45 1856   0.099   0.802   3.400  0.0000  0.0000  0.0000
  126TMC3  HA46 1857  -0.398   0.652   3.505  0.0000  0.0000  0.0000
  126TMC3  HA47 1858  -0.122   0.906   3.295  0.0000  0.0000  0.0000
  126TMC3  HA48 1859   0.009   0.637   3.608  0.0000  0.0000  0.0000
  126TMC3   O49 1860  -0.348   0.490   3.685  0.0000  0.0000  0.0000
  126TMC3   O50 1861  -0.499   0.857   3.397  0.0000  0.0000  0.0000
  126TMC3   O51 1862   0.126   0.808   3.277  0.0000  0.0000  0.0000
  127TMC3  CA37 1863   0.595   3.140   2.878  0.0000  0.0000  0.0000
  127TMC3  CA38 1864   0.714   3.157   2.950  0.0000  0.0000  0.0000
  127TMC3  CA39 1865   0.810   3.057   2.933  0.0000  0.0000  0.0000
  127TMC3  CA40 1866   0.773   2.936   2.866  0.0000  0.0000  0.0000
  127TMC3  CA41 1867   0.652   2.923   2.797  0.0000  0.0000  0.0000
  127TMC3  CA42 1868   0.561   3.025   2.805  0.0000  0.0000  0.0000
  127TMC3  CB43 1869   0.502   3.256   2.889  0.0000  0.0000  0.0000
  127TMC3  CB44 1870   0.947   3.079   2.985  0.0000  0.0000  0.0000
  127TMC3  CB45 1871   0.616   2.800   2.714  0.0000  0.0000  0.0000
  127TMC3  HA46 1872   0.735   3.240   3.017  0.0000  0.0000  0.0000
  127TMC3  HA47 1873   0.856   2.867   2.852  0.0000  0.0000  0.0000
  127TMC3  HA48 1874   0.466   3.023   2.753  0.0000  0.0000  0.0000
  127TMC3   O49 1875   0.524   3.355   2.958  0.0000  0.0000  0.0000
  127TMC3   O50 1876   0.964   3.161   3.072  0.0000  0.0000  0.0000
  127TMC3   O51 1877   0.516   2.791   2.654  0.0000  0.0000  0.0000
  128TMC1    C1 1878  -0.463   1.547   3.886  0.0000  0.0000  0.0000
  128TMC1    C2 1879  -0.079   1.850   3.802  0.0000  0.0000  0.0000
  128TMC1   CA3 1880  -0.322   1.589   3.923  0.0000  0.0000  0.0000
  128TMC1   CA4 1881  -0.271   1.704   3.864  0.0000  0.0000  0.0000
  128TMC1   CA5 1882  -0.136   1.736   3.880  0.0000  0.0000  0.0000
  128TMC1   CA6 1883  -0.055   1.668   3.971  0.0000  0.0000  0.0000
  128TMC1   CA7 1884  -0.111   1.560   4.036  0.0000  0.0000  0.0000
  128TMC1   CA8 1885  -0.241   1.517   4.009  0.0000  0.0000  0.0000
  128TMC1   CB9 1886  -0.029   1.498   4.147  0.0000  0.0000  0.0000
  128TMC1  HA10 1887  -0.287   1.437   4.065  0.0000  0.0000  0.0000
  128TMC1  HA11 1888  -0.329   1.749   3.783  0.0000  0.0000  0.0000
  128TMC1  HA12 1889   0.044   1.705   3.992  0.0000  0.0000  0.0000
  128TMC1  HO13 1890  -0.481   1.484   4.059  0.0000  0.0000  0.0000
  128TMC1  HO14 1891   0.083   1.852   3.904  0.0000  0.0000  0.0000
  128TMC1   O15 1892  -0.513   1.563   3.774  0.0000  0.0000  0.0000
  128TMC1   O16 1893  -0.134   1.927   3.723  0.0000  0.0000  0.0000
  128TMC1   O17 1894   0.018   1.573   4.234  0.0000  0.0000  0.0000
  128TMC1  OH18 1895  -0.535   1.477   3.979  0.0000  0.0000  0.0000
  128TMC1  OH19 1896   0.047   1.883   3.819  0.0000  0.0000  0.0000
  129TMC2   C20 1897   0.788  -0.516   2.434  0.0000  0.0000  0.0000
  129TMC2  CA21 1898   0.783  -0.368   2.459  0.0000  0.0000  0.0000
  129TMC2  CA22 1899   0.903  -0.296   2.453  0.0000  0.0000  0.0000
  129TMC2  CA23 1900   0.900  -0.158   2.453  0.0000  0.0000  0.0000
  129TMC2  CA24 1901   0.786  -0.093   2.493  0.0000  0.0000  0.0000
  129TMC2  CA25 1902   0.667  -0.159   2.518  0.0000  0.0000  0.0000
  129TMC2  CA26 1903   0.670  -0.297   2.499  0.0000  0.0000  0.0000
  129TMC2  CB27 1904   1.026  -0.078   2.435  0.0000  0.0000  0.0000
  129TMC2  CB28 1905   0.537  -0.091   2.542  0.0000  0.0000  0.0000
  129TMC2  HA29 1906   0.995  -0.351   2.435  0.0000  0.0000  0.0000
  129TMC2  HA30 1907   0.794   0.013   2.515  0.0000  0.0000  0.0000
  129TMC2  HA31 1908   0.578  -0.353   2.514  0.0000  0.0000  0.0000
  129TMC2  HO32 1909   0.598  -0.503   2.422  0.0000  0.0000  0.0000
  129TMC2   O33 1910   0.887  -0.579   2.419  0.0000  0.0000  0.0000
  129TMC2   O34 1911   1.017   0.041   2.412  0.0000  0.0000  0.0000
  129TMC2   O35 1912   0.437  -0.157   2.539  0.0000  0.0000  0.0000
  129TMC2  OH36 1913   0.665  -0.570   2.441  0.0000  0.0000  0.0000
  130TMC3  CA37 1914   0.500   1.583   3.385  0.0000  0.0000  0.0000
  130TMC3  CA38 1915   0.458   1.714   3.349  0.0000  0.0000  0.0000
  130TMC3  CA39 1916   0.502   1.774   3.230  0.0000  0.0000  0.0000
  130TMC3  CA40 1917   0.601   1.709   3.157  0.0000  0.0000  0.0000
  130TMC3  CA41 1918   0.634   1.576   3.188  0.0000  0.0000  0.0000
  130TMC3  CA42 1919   0.582   1.506   3.302  0.0000  0.0000  0.0000
  130TMC3  CB43 1920   0.442   1.515   3.506  0.0000  0.0000  0.0000
  130TMC3  CB44 1921   0.476   1.919   3.198  0.0000  0.0000  0.0000
  130TMC3  CB45 1922   0.724   1.500   3.088  0.0000  0.0000  0.0000
  130TMC3  HA46 1923   0.384   1.766   3.409  0.0000  0.0000  0.0000
  130TMC3  HA47 1924   0.635   1.744   3.061  0.0000  0.0000  0.0000
  130TMC3  HA48 1925   0.615   1.406   3.329  0.0000  0.0000  0.0000
  130TMC3   O49 1926   0.442   1.394   3.506  0.0000  0.0000  0.0000
  130TMC3   O50 1927   0.386   1.970   3.261  0.0000  0.0000  0.0000
  130TMC3   O51 1928   0.710   1.380   3.065  0.0000  0.0000  0.0000
  131TMC3  CA37 1929   0.385   2.936   3.075  0.0000  0.0000  0.0000
  131TMC3  CA38 1930   0.296   2.924   2.965  0.0000  0.0000  0.0000
  131TMC3  CA39 1931   0.186   3.016   2.965  0.0000  0.0000  0.0000
  131TMC3  CA40 1932   0.179   3.113   3.065  0.0000  0.0000  0.0000
  131TMC3  CA41 1933   0.268   3.120   3.171  0.0000  0.0000  0.0000
  131TMC3  CA42 1934   0.368   3.025   3.179  0.0000  0.0000  0.0000
  131TMC3  CB43 1935   0.498   2.838   3.089  0.0000  0.0000  0.0000
  131TMC3  CB44 1936   0.077   3.005   2.862  0.0000  0.0000  0.0000
  131TMC3  CB45 1937   0.243   3.215   3.283  0.0000  0.0000  0.0000
  131TMC3  HA46 1938   0.317   2.844   2.894  0.0000  0.0000  0.0000
  131TMC3  HA47 1939   0.093   3.179   3.063  0.0000  0.0000  0.0000
  131TMC3  HA48 1940   0.433   3.014   3.265  0.0000  0.0000  0.0000
  131TMC3   O49 1941   0.485   2.725   3.033  0.0000  0.0000  0.0000
  131TMC3   O50 1942   0.078   2.924   2.775  0.0000  0.0000  0.0000
  131TMC3   O51 1943   0.132   3.259   3.299  0.0000  0.0000  0.0000
  132TMC3  CA37 1944   2.758   2.277   3.782  0.0000  0.0000  0.0000
  132TMC3  CA38 1945   2.599   2.186   3.759  0.0000  0.0000  0.0000
  132TMC3  CA39 1946   2.459   2.259   3.666  0.0000  0.0000  0.0000
  132TMC3  CA40 1947   2.477   2.435   3.592  0.0000  0.0000  0.0000
  132TMC3  CA41 1948   2.640   2.528   3.608  0.0000  0.0000  0.0000
  132TMC3  CA42 1949   2.780   2.449   3.708  0.0000  0.0000  0.0000
  132TMC3  CB43 1950   2.867   2.203   3.859  0.0000  0.0000  0.0000
  132TMC3  CB44 1951   2.331   2.181   3.648  0.0000  0.0000  0.0000
  132TMC3  CB45 1952   2.682   2.662   3.554  0.0000  0.0000  0.0000
  132TMC3  HA46 1953   2.590   2.086   3.801  0.0000  0.0000  0.0000
  132TMC3  HA47 1954   2.394   2.477   3.537  0.0000  0.0000  0.0000
  132TMC3  HA48 1955   2.876   2.495   3.728  0.0000  0.0000  0.0000
  132TMC3   O49 1956   2.848   2.091   3.901  0.0000  0.0000  0.0000
  132TMC3   O50 1957   2.288   2.105   3.732  0.0000  0.0000  0.0000
  132TMC3   O51 1958   2.777   2.723   3.606  0.0000  0.0000  0.0000
  133TMC1    C1 1959   1.216  -1.358   4.137  0.0000  0.0000  0.0000
  133TMC1    C2 1960   0.991  -1.478   4.551  0.0000  0.0000  0.0000
  133TMC1   CA3 1961   1.114  -1.320   4.240  0.0000  0.0000  0.0000
  133TMC1   CA4 1962   1.094  -1.400   4.352  0.0000  0.0000  0.0000
  133TMC1   CA5 1963   0.998  -1.374   4.443  0.0000  0.0000  0.0000
  133TMC1   CA6 1964   0.910  -1.265   4.421  0.0000  0.0000  0.0000
  133TMC1   CA7 1965   0.928  -1.177   4.315  0.0000  0.0000  0.0000
  133TMC1   CA8 1966   1.034  -1.203   4.229  0.0000  0.0000  0.0000
  133TMC1   CB9 1967   0.836  -1.064   4.285  0.0000  0.0000  0.0000
  133TMC1  HA10 1968   1.039  -1.137   4.143  0.0000  0.0000  0.0000
  133TMC1  HA11 1969   1.144  -1.496   4.343  0.0000  0.0000  0.0000
  133TMC1  HA12 1970   0.829  -1.246   4.490  0.0000  0.0000  0.0000
  133TMC1  HO13 1971   1.183  -1.181   4.060  0.0000  0.0000  0.0000
  133TMC1  HO14 1972   0.842  -1.377   4.609  0.0000  0.0000  0.0000
  133TMC1   O15 1973   1.279  -1.463   4.136  0.0000  0.0000  0.0000
  133TMC1   O16 1974   1.065  -1.575   4.562  0.0000  0.0000  0.0000
  133TMC1   O17 1975   0.821  -1.031   4.167  0.0000  0.0000  0.0000
  133TMC1  OH18 1976   1.247  -1.254   4.054  0.0000  0.0000  0.0000
  133TMC1  OH19 1977   0.894  -1.452   4.642  0.0000  0.0000  0.0000
  134TMC2   C20 1978  -0.493   1.953   3.981  0.0000  0.0000  0.0000
  134TMC2  CA21 1979  -0.501   1.984   3.833  0.0000  0.0000  0.0000
  134TMC2  CA22 1980  -0.588   1.905   3.758  0.0000  0.0000  0.0000
  134TMC2  CA23 1981  -0.590   1.908   3.620  0.0000  0.0000  0.0000
  134TMC2  CA24 1982  -0.494   1.990   3.562  0.0000  0.0000  0.0000
  134TMC2  CA25 1983  -0.415   2.079   3.632  0.0000  0.0000  0.0000
  134TMC2  CA26 1984  -0.425   2.081   3.768  0.0000  0.0000  0.0000
  134TMC2  CB27 1985  -0.660   1.815   3.532  0.0000  0.0000  0.0000
  134TMC2  CB28 1986  -0.325   2.162   3.556  0.0000  0.0000  0.0000
  134TMC2  HA29 1987  -0.638   1.823   3.809  0.0000  0.0000  0.0000
  134TMC2  HA30 1988  -0.483   1.992   3.454  0.0000  0.0000  0.0000
  134TMC2  HA31 1989  -0.366   2.146   3.832  0.0000  0.0000  0.0000
  134TMC2  HO32 1990  -0.398   2.112   4.002  0.0000  0.0000  0.0000
  134TMC2   O33 1991  -0.550   1.856   4.037  0.0000  0.0000  0.0000
  134TMC2   O34 1992  -0.704   1.861   3.425  0.0000  0.0000  0.0000
  134TMC2   O35 1993  -0.334   2.178   3.433  0.0000  0.0000  0.0000
  134TMC2  OH36 1994  -0.432   2.038   4.056  0.0000  0.0000  0.0000
  135TMC2   C20 1995   1.397   2.118   2.711  0.0000  0.0000  0.0000
  135TMC2  CA21 1996   1.437   2.258   2.698  0.0000  0.0000  0.0000
  135TMC2  CA22 1997   1.507   2.291   2.583  0.0000  0.0000  0.0000
  135TMC2  CA23 1998   1.541   2.421   2.554  0.0000  0.0000  0.0000
  135TMC2  CA24 1999   1.506   2.522   2.647  0.0000  0.0000  0.0000
  135TMC2  CA25 2000   1.426   2.490   2.759  0.0000  0.0000  0.0000
  135TMC2  CA26 2001   1.392   2.356   2.785  0.0000  0.0000  0.0000
  135TMC2  CB27 2002   1.612   2.454   2.425  0.0000  0.0000  0.0000
  135TMC2  CB28 2003   1.389   2.592   2.866  0.0000  0.0000  0.0000
  135TMC2  HA29 2004   1.541   2.214   2.514  0.0000  0.0000  0.0000
  135TMC2  HA30 2005   1.533   2.624   2.621  0.0000  0.0000  0.0000
  135TMC2  HA31 2006   1.335   2.327   2.873  0.0000  0.0000  0.0000
  135TMC2  HO32 2007   1.433   2.095   2.533  0.0000  0.0000  0.0000
  135TMC2   O33 2008   1.355   2.077   2.819  0.0000  0.0000  0.0000
  135TMC2   O34 2009   1.636   2.362   2.350  0.0000  0.0000  0.0000
  135TMC2   O35 2010   1.313   2.570   2.962  0.0000  0.0000  0.0000
  135TMC2  OH36 2011   1.401   2.036   2.603  0.0000  0.0000  0.0000
  136TMC3  CA37 2012   2.158  -0.455   2.182  0.0000  0.0000  0.0000
  136TMC3  CA38 2013   2.063  -0.514   2.260  0.0000  0.0000  0.0000
  136TMC3  CA39 2014   1.936  -0.457   2.265  0.0000  0.0000  0.0000
  136TMC3  CA40 2015   1.919  -0.332   2.213  0.0000  0.0000  0.0000
  136TMC3  CA41 2016   2.010  -0.269   2.137  0.0000  0.0000  0.0000
  136TMC3  CA42 2017   2.135  -0.329   2.123  0.0000  0.0000  0.0000
  136TMC3  CB43 2018   2.294  -0.510   2.166  0.0000  0.0000  0.0000
  136TMC3  CB44 2019   1.824  -0.529   2.345  0.0000  0.0000  0.0000
  136TMC3  CB45 2020   1.987  -0.133   2.071  0.0000  0.0000  0.0000
  136TMC3  HA46 2021   2.082  -0.617   2.291  0.0000  0.0000  0.0000
  136TMC3  HA47 2022   1.826  -0.284   2.238  0.0000  0.0000  0.0000
  136TMC3  HA48 2023   2.213  -0.283   2.063  0.0000  0.0000  0.0000
  136TMC3   O49 2024   2.343  -0.572   2.257  0.0000  0.0000  0.0000
  136TMC3   O50 2025   1.844  -0.615   2.432  0.0000  0.0000  0.0000
  136TMC3   O51 2026   2.082  -0.055   2.069  0.0000  0.0000  0.0000
  137TMC1    C1 2027   0.633   1.933   3.546  0.0000  0.0000  0.0000
  137TMC1    C2 2028   0.803   2.308   3.277  0.0000  0.0000  0.0000
  137TMC1   CA3 2029   0.621   2.074   3.510  0.0000  0.0000  0.0000
  137TMC1   CA4 2030   0.708   2.122   3.417  0.0000  0.0000  0.0000
  137TMC1   CA5 2031   0.708   2.260   3.385  0.0000  0.0000  0.0000
  137TMC1   CA6 2032   0.603   2.343   3.422  0.0000  0.0000  0.0000
  137TMC1   CA7 2033   0.503   2.292   3.503  0.0000  0.0000  0.0000
  137TMC1   CA8 2034   0.515   2.159   3.547  0.0000  0.0000  0.0000
  137TMC1   CB9 2035   0.374   2.369   3.509  0.0000  0.0000  0.0000
  137TMC1  HA10 2036   0.435   2.126   3.613  0.0000  0.0000  0.0000
  137TMC1  HA11 2037   0.795   2.068   3.383  0.0000  0.0000  0.0000
  137TMC1  HA12 2038   0.597   2.443   3.380  0.0000  0.0000  0.0000
  137TMC1  HO13 2039   0.472   1.970   3.630  0.0000  0.0000  0.0000
  137TMC1  HO14 2040   0.821   2.468   3.372  0.0000  0.0000  0.0000
  137TMC1   O15 2041   0.716   1.862   3.507  0.0000  0.0000  0.0000
  137TMC1   O16 2042   0.839   2.234   3.186  0.0000  0.0000  0.0000
  137TMC1   O17 2043   0.376   2.481   3.460  0.0000  0.0000  0.0000
  137TMC1  OH18 2044   0.523   1.889   3.618  0.0000  0.0000  0.0000
  137TMC1  OH19 2045   0.853   2.428   3.289  0.0000  0.0000  0.0000
  138TMC2   C20 2046   1.928   2.464   2.665  0.0000  0.0000  0.0000
  138TMC2  CA21 2047   1.978   2.563   2.771  0.0000  0.0000  0.0000
  138TMC2  CA22 2048   2.101   2.619   2.770  0.0000  0.0000  0.0000
  138TMC2  CA23 2049   2.141   2.710   2.869  0.0000  0.0000  0.0000
  138TMC2  CA24 2050   2.062   2.721   2.982  0.0000  0.0000  0.0000
  138TMC2  CA25 2051   1.932   2.664   2.980  0.0000  0.0000  0.0000
  138TMC2  CA26 2052   1.893   2.591   2.870  0.0000  0.0000  0.0000
  138TMC2  CB27 2053   2.282   2.767   2.855  0.0000  0.0000  0.0000
  138TMC2  CB28 2054   1.841   2.680   3.095  0.0000  0.0000  0.0000
  138TMC2  HA29 2055   2.165   2.593   2.686  0.0000  0.0000  0.0000
  138TMC2  HA30 2056   2.095   2.777   3.068  0.0000  0.0000  0.0000
  138TMC2  HA31 2057   1.794   2.548   2.862  0.0000  0.0000  0.0000
  138TMC2  HO32 2058   2.048   2.527   2.531  0.0000  0.0000  0.0000
  138TMC2   O33 2059   1.828   2.395   2.683  0.0000  0.0000  0.0000
  138TMC2   O34 2060   2.361   2.721   2.778  0.0000  0.0000  0.0000
  138TMC2   O35 2061   1.872   2.762   3.184  0.0000  0.0000  0.0000
  138TMC2  OH36 2062   1.990   2.451   2.546  0.0000  0.0000  0.0000
  139TMC1    C1 2063   0.131   0.777   3.920  0.0000  0.0000  0.0000
  139TMC1    C2 2064   0.213   0.857   4.401  0.0000  0.0000  0.0000
  139TMC1   CA3 2065   0.183   0.867   4.030  0.0000  0.0000  0.0000
  139TMC1   CA4 2066   0.180   0.823   4.162  0.0000  0.0000  0.0000
  139TMC1   CA5 2067   0.212   0.911   4.263  0.0000  0.0000  0.0000
  139TMC1   CA6 2068   0.261   1.038   4.235  0.0000  0.0000  0.0000
  139TMC1   CA7 2069   0.251   1.085   4.105  0.0000  0.0000  0.0000
  139TMC1   CA8 2070   0.211   1.000   3.999  0.0000  0.0000  0.0000
  139TMC1   CB9 2071   0.286   1.228   4.084  0.0000  0.0000  0.0000
  139TMC1  HA10 2072   0.202   1.032   3.896  0.0000  0.0000  0.0000
  139TMC1  HA11 2073   0.147   0.724   4.191  0.0000  0.0000  0.0000
  139TMC1  HA12 2074   0.296   1.097   4.319  0.0000  0.0000  0.0000
  139TMC1  HO13 2075   0.155   0.633   4.034  0.0000  0.0000  0.0000
  139TMC1  HO14 2076   0.182   1.037   4.440  0.0000  0.0000  0.0000
  139TMC1   O15 2077   0.096   0.812   3.809  0.0000  0.0000  0.0000
  139TMC1   O16 2078   0.225   0.743   4.437  0.0000  0.0000  0.0000
  139TMC1   O17 2079   0.339   1.287   4.180  0.0000  0.0000  0.0000
  139TMC1  OH18 2080   0.140   0.644   3.938  0.0000  0.0000  0.0000
  139TMC1  OH19 2081   0.197   0.955   4.490  0.0000  0.0000  0.0000
  140TMC1    C1 2082   2.221   3.273   2.145  0.0000  0.0000  0.0000
  140TMC1    C2 2083   2.530   2.905   2.004  0.0000  0.0000  0.0000
  140TMC1   CA3 2084   2.240   3.137   2.093  0.0000  0.0000  0.0000
  140TMC1   CA4 2085   2.370   3.087   2.059  0.0000  0.0000  0.0000
  140TMC1   CA5 2086   2.389   2.948   2.038  0.0000  0.0000  0.0000
  140TMC1   CA6 2087   2.280   2.859   2.059  0.0000  0.0000  0.0000
  140TMC1   CA7 2088   2.155   2.908   2.093  0.0000  0.0000  0.0000
  140TMC1   CA8 2089   2.134   3.043   2.114  0.0000  0.0000  0.0000
  140TMC1   CB9 2090   2.042   2.809   2.115  0.0000  0.0000  0.0000
  140TMC1  HA10 2091   2.040   3.079   2.155  0.0000  0.0000  0.0000
  140TMC1  HA11 2092   2.462   3.144   2.053  0.0000  0.0000  0.0000
  140TMC1  HA12 2093   2.292   2.751   2.047  0.0000  0.0000  0.0000
  140TMC1  HO13 2094   2.403   3.273   2.142  0.0000  0.0000  0.0000
  140TMC1  HO14 2095   2.524   3.041   1.872  0.0000  0.0000  0.0000
  140TMC1   O15 2096   2.113   3.327   2.150  0.0000  0.0000  0.0000
  140TMC1   O16 2097   2.595   2.811   2.049  0.0000  0.0000  0.0000
  140TMC1   O17 2098   2.078   2.696   2.146  0.0000  0.0000  0.0000
  140TMC1  OH18 2099   2.335   3.338   2.165  0.0000  0.0000  0.0000
  140TMC1  OH19 2100   2.592   2.985   1.915  0.0000  0.0000  0.0000
  141TMC2   C20 2101  -0.490   1.834   2.238  0.0000  0.0000  0.0000
  141TMC2  CA21 2102  -0.551   1.748   2.135  0.0000  0.0000  0.0000
  141TMC2  CA22 2103  -0.589   1.808   2.009  0.0000  0.0000  0.0000
  141TMC2  CA23 2104  -0.638   1.727   1.909  0.0000  0.0000  0.0000
  141TMC2  CA24 2105  -0.651   1.586   1.938  0.0000  0.0000  0.0000
  141TMC2  CA25 2106  -0.595   1.530   2.060  0.0000  0.0000  0.0000
  141TMC2  CA26 2107  -0.540   1.611   2.160  0.0000  0.0000  0.0000
  141TMC2  CB27 2108  -0.688   1.791   1.786  0.0000  0.0000  0.0000
  141TMC2  CB28 2109  -0.597   1.384   2.093  0.0000  0.0000  0.0000
  141TMC2  HA29 2110  -0.583   1.915   1.996  0.0000  0.0000  0.0000
  141TMC2  HA30 2111  -0.687   1.531   1.853  0.0000  0.0000  0.0000
  141TMC2  HA31 2112  -0.496   1.572   2.251  0.0000  0.0000  0.0000
  141TMC2  HO32 2113  -0.343   1.711   2.250  0.0000  0.0000  0.0000
  141TMC2   O33 2114  -0.537   1.938   2.274  0.0000  0.0000  0.0000
  141TMC2   O34 2115  -0.808   1.806   1.769  0.0000  0.0000  0.0000
  141TMC2   O35 2116  -0.563   1.348   2.203  0.0000  0.0000  0.0000
  141TMC2  OH36 2117  -0.381   1.785   2.301  0.0000  0.0000  0.0000
  142MPD1   CA1 2118   1.693   0.172   5.362  0.0000  0.0000  0.0000
  142MPD1   CA2 2119   1.575   0.215   5.426  0.0000  0.0000  0.0000
  142MPD1   CA3 2120   1.575   0.336   5.506  0.0000  0.0000  0.0000
  142MPD1   CA4 2121   1.687   0.412   5.514  0.0000  0.0000  0.0000
  142MPD1   CA5 2122   1.805   0.356   5.460  0.0000  0.0000  0.0000
  142MPD1   CA6 2123   1.806   0.246   5.387  0.0000  0.0000  0.0000
  142MPD1  HA10 2124   1.898   0.210   5.342  0.0000  0.0000  0.0000
  142MPD1   HA7 2125   1.486   0.153   5.415  0.0000  0.0000  0.0000
  142MPD1   HA8 2126   1.690   0.503   5.574  0.0000  0.0000  0.0000
  142MPD1   HA9 2127   1.896   0.416   5.463  0.0000  0.0000  0.0000
  142MPD1  HN11 2128   1.790   0.029   5.247  0.0000  0.0000  0.0000
  142MPD1  HN12 2129   1.464   0.460   5.622  0.0000  0.0000  0.0000
  142MPD1  HN13 2130   1.395   0.309   5.588  0.0000  0.0000  0.0000
  142MPD1  NB14 2131   1.700   0.072   5.263  0.0000  0.0000  0.0000
  142MPD1  NH15 2132   1.461   0.380   5.560  0.0000  0.0000  0.0000
  143MPD2  CA16 2133   4.997  -2.705   4.283  0.0000  0.0000  0.0000
  143MPD2  CA17 2134   4.919  -2.807   4.344  0.0000  0.0000  0.0000
  143MPD2  CA18 2135   4.970  -2.899   4.432  0.0000  0.0000  0.0000
  143MPD2  CA19 2136   5.104  -2.888   4.469  0.0000  0.0000  0.0000
  143MPD2  CA20 2137   5.176  -2.784   4.419  0.0000  0.0000  0.0000
  143MPD2  CA21 2138   5.122  -2.691   4.332  0.0000  0.0000  0.0000
  143MPD2  HA22 2139   4.815  -2.816   4.314  0.0000  0.0000  0.0000
  143MPD2  HA23 2140   5.151  -2.948   4.546  0.0000  0.0000  0.0000
  143MPD2  HA24 2141   5.281  -2.784   4.445  0.0000  0.0000  0.0000
  143MPD2  HA25 2142   5.182  -2.607   4.298  0.0000  0.0000  0.0000
  143MPD2  HN26 2143   4.978  -2.525   4.185  0.0000  0.0000  0.0000
  143MPD2  HN27 2144   4.894  -3.085   4.422  0.0000  0.0000  0.0000
  143MPD2  NB28 2145   4.938  -2.618   4.191  0.0000  0.0000  0.0000
  143MPD2  NB29 2146   4.884  -3.002   4.480  0.0000  0.0000  0.0000
  144MPD2  CA16 2147   4.082  -2.526   4.545  0.0000  0.0000  0.0000
  144MPD2  CA17 2148   4.206  -2.590   4.558  0.0000  0.0000  0.0000
  144MPD2  CA18 2149   4.266  -2.611   4.687  0.0000  0.0000  0.0000
  144MPD2  CA19 2150   4.200  -2.559   4.795  0.0000  0.0000  0.0000
  144MPD2  CA20 2151   4.083  -2.488   4.781  0.0000  0.0000  0.0000
  144MPD2  CA21 2152   4.018  -2.476   4.657  0.0000  0.0000  0.0000
  144MPD2  HA22 2153   4.260  -2.617   4.468  0.0000  0.0000  0.0000
  144MPD2  HA23 2154   4.249  -2.577   4.890  0.0000  0.0000  0.0000
  144MPD2  HA24 2155   4.048  -2.449   4.876  0.0000  0.0000  0.0000
  144MPD2  HA25 2156   3.931  -2.412   4.644  0.0000  0.0000  0.0000
  144MPD2  HN26 2157   4.098  -2.475   4.339  0.0000  0.0000  0.0000
  144MPD2  HN27 2158   4.407  -2.738   4.618  0.0000  0.0000  0.0000
  144MPD2  NB28 2159   4.034  -2.499   4.413  0.0000  0.0000  0.0000
  144MPD2  NB29 2160   4.394  -2.674   4.696  0.0000  0.0000  0.0000
  145TMC2   C20 2161   4.975  -2.731   4.923  0.0000  0.0000  0.0000
  145TMC2  CA21 2162   4.854  -2.751   4.834  0.0000  0.0000  0.0000
  145TMC2  CA22 2163   4.726  -2.697   4.860  0.0000  0.0000  0.0000
  145TMC2  CA23 2164   4.622  -2.733   4.776  0.0000  0.0000  0.0000
  145TMC2  CA24 2165   4.630  -2.833   4.680  0.0000  0.0000  0.0000
  145TMC2  CA25 2166   4.759  -2.887   4.657  0.0000  0.0000  0.0000
  145TMC2  CA26 2167   4.870  -2.841   4.730  0.0000  0.0000  0.0000
  145TMC2  CB27 2168   4.497  -2.657   4.790  0.0000  0.0000  0.0000
  145TMC2  CB28 2169   4.780  -3.005   4.562  0.0000  0.0000  0.0000
  145TMC2  HA29 2170   4.710  -2.619   4.933  0.0000  0.0000  0.0000
  145TMC2  HA30 2171   4.544  -2.869   4.625  0.0000  0.0000  0.0000
  145TMC2  HA31 2172   4.965  -2.888   4.707  0.0000  0.0000  0.0000
  145TMC2  HO32 2173   4.858  -2.621   5.034  0.0000  0.0000  0.0000
  145TMC2   O33 2174   5.085  -2.774   4.894  0.0000  0.0000  0.0000
  145TMC2   O34 2175   4.493  -2.569   4.875  0.0000  0.0000  0.0000
  145TMC2   O35 2176   4.702  -3.095   4.567  0.0000  0.0000  0.0000
  145TMC2  OH36 2177   4.949  -2.655   5.037  0.0000  0.0000  0.0000
  146MPD1   CA1 2178   0.438   0.604   5.111  0.0000  0.0000  0.0000
  146MPD1   CA2 2179   0.364   0.724   5.133  0.0000  0.0000  0.0000
  146MPD1   CA3 2180   0.436   0.840   5.167  0.0000  0.0000  0.0000
  146MPD1   CA4 2181   0.576   0.845   5.162  0.0000  0.0000  0.0000
  146MPD1   CA5 2182   0.647   0.726   5.135  0.0000  0.0000  0.0000
  146MPD1   CA6 2183   0.580   0.610   5.113  0.0000  0.0000  0.0000
  146MPD1  HA10 2184   0.636   0.518   5.102  0.0000  0.0000  0.0000
  146MPD1   HA7 2185   0.255   0.719   5.131  0.0000  0.0000  0.0000
  146MPD1   HA8 2186   0.630   0.930   5.202  0.0000  0.0000  0.0000
  146MPD1   HA9 2187   0.755   0.735   5.144  0.0000  0.0000  0.0000
  146MPD1  HN11 2188   0.411   0.425   5.009  0.0000  0.0000  0.0000
  146MPD1  HN12 2189   0.420   1.029   5.238  0.0000  0.0000  0.0000
  146MPD1  HN13 2190   0.278   0.949   5.232  0.0000  0.0000  0.0000
  146MPD1  NB14 2191   0.370   0.483   5.081  0.0000  0.0000  0.0000
  146MPD1  NH15 2192   0.369   0.959   5.187  0.0000  0.0000  0.0000
  147MPD1   CA1 2193   5.193  -0.642   5.092  0.0000  0.0000  0.0000
  147MPD1   CA2 2194   5.230  -0.523   5.155  0.0000  0.0000  0.0000
  147MPD1   CA3 2195   5.286  -0.532   5.285  0.0000  0.0000  0.0000
  147MPD1   CA4 2196   5.296  -0.658   5.349  0.0000  0.0000  0.0000
  147MPD1   CA5 2197   5.266  -0.774   5.275  0.0000  0.0000  0.0000
  147MPD1   CA6 2198   5.216  -0.769   5.148  0.0000  0.0000  0.0000
  147MPD1  HA10 2199   5.180  -0.859   5.098  0.0000  0.0000  0.0000
  147MPD1   HA7 2200   5.215  -0.429   5.103  0.0000  0.0000  0.0000
  147MPD1   HA8 2201   5.347  -0.666   5.444  0.0000  0.0000  0.0000
  147MPD1   HA9 2202   5.308  -0.864   5.319  0.0000  0.0000  0.0000
  147MPD1  HN11 2203   5.177  -0.713   4.902  0.0000  0.0000  0.0000
  147MPD1  HN12 2204   5.409  -0.448   5.411  0.0000  0.0000  0.0000
  147MPD1  HN13 2205   5.360  -0.336   5.309  0.0000  0.0000  0.0000
  147MPD1  NB14 2206   5.143  -0.636   4.959  0.0000  0.0000  0.0000
  147MPD1  NH15 2207   5.328  -0.420   5.357  0.0000  0.0000  0.0000
  148MPD1   CA1 2208   3.186  -1.718   3.249  0.0000  0.0000  0.0000
  148MPD1   CA2 2209   3.294  -1.739   3.346  0.0000  0.0000  0.0000
  148MPD1   CA3 2210   3.419  -1.678   3.324  0.0000  0.0000  0.0000
  148MPD1   CA4 2211   3.445  -1.601   3.212  0.0000  0.0000  0.0000
  148MPD1   CA5 2212   3.344  -1.580   3.122  0.0000  0.0000  0.0000
  148MPD1   CA6 2213   3.212  -1.634   3.137  0.0000  0.0000  0.0000
  148MPD1  HA10 2214   3.137  -1.611   3.062  0.0000  0.0000  0.0000
  148MPD1   HA7 2215   3.275  -1.800   3.434  0.0000  0.0000  0.0000
  148MPD1   HA8 2216   3.543  -1.553   3.211  0.0000  0.0000  0.0000
  148MPD1   HA9 2217   3.360  -1.516   3.035  0.0000  0.0000  0.0000
  148MPD1  HN11 2218   3.063  -1.878   3.275  0.0000  0.0000  0.0000
  148MPD1  HN12 2219   3.617  -1.667   3.407  0.0000  0.0000  0.0000
  148MPD1  HN13 2220   3.501  -1.749   3.501  0.0000  0.0000  0.0000
  148MPD1  NB14 2221   3.058  -1.777   3.269  0.0000  0.0000  0.0000
  148MPD1  NH15 2222   3.521  -1.698   3.416  0.0000  0.0000  0.0000
  149MPD1   CA1 2223   2.242   1.429   3.144  0.0000  0.0000  0.0000
  149MPD1   CA2 2224   2.129   1.374   3.086  0.0000  0.0000  0.0000
  149MPD1   CA3 2225   2.139   1.274   2.986  0.0000  0.0000  0.0000
  149MPD1   CA4 2226   2.267   1.233   2.945  0.0000  0.0000  0.0000
  149MPD1   CA5 2227   2.386   1.288   2.999  0.0000  0.0000  0.0000
  149MPD1   CA6 2228   2.368   1.372   3.107  0.0000  0.0000  0.0000
  149MPD1  HA10 2229   2.463   1.408   3.147  0.0000  0.0000  0.0000
  149MPD1   HA7 2230   2.028   1.398   3.120  0.0000  0.0000  0.0000
  149MPD1   HA8 2231   2.290   1.160   2.867  0.0000  0.0000  0.0000
  149MPD1   HA9 2232   2.484   1.261   2.962  0.0000  0.0000  0.0000
  149MPD1  HN11 2233   2.151   1.513   3.305  0.0000  0.0000  0.0000
  149MPD1  HN12 2234   1.948   1.273   2.896  0.0000  0.0000  0.0000
  149MPD1  HN13 2235   2.055   1.174   2.820  0.0000  0.0000  0.0000
  149MPD1  NB14 2236   2.228   1.531   3.242  0.0000  0.0000  0.0000
  149MPD1  NH15 2237   2.035   1.222   2.906  0.0000  0.0000  0.0000
  150MPD1   CA1 2238   2.543   1.822   3.932  0.0000  0.0000  0.0000
  150MPD1   CA2 2239   2.544   1.911   4.032  0.0000  0.0000  0.0000
  150MPD1   CA3 2240   2.634   1.913   4.137  0.0000  0.0000  0.0000
  150MPD1   CA4 2241   2.735   1.817   4.141  0.0000  0.0000  0.0000
  150MPD1   CA5 2242   2.738   1.725   4.042  0.0000  0.0000  0.0000
  150MPD1   CA6 2243   2.643   1.720   3.937  0.0000  0.0000  0.0000
  150MPD1  HA10 2244   2.667   1.646   3.861  0.0000  0.0000  0.0000
  150MPD1   HA7 2245   2.477   1.997   4.030  0.0000  0.0000  0.0000
  150MPD1   HA8 2246   2.821   1.818   4.207  0.0000  0.0000  0.0000
  150MPD1   HA9 2247   2.822   1.657   4.042  0.0000  0.0000  0.0000
  150MPD1  HN11 2248   2.354   1.813   3.839  0.0000  0.0000  0.0000
  150MPD1  HN12 2249   2.689   1.993   4.318  0.0000  0.0000  0.0000
  150MPD1  HN13 2250   2.542   2.054   4.255  0.0000  0.0000  0.0000
  150MPD1  NB14 2251   2.453   1.821   3.821  0.0000  0.0000  0.0000
  150MPD1  NH15 2252   2.631   2.010   4.237  0.0000  0.0000  0.0000
  151MPD2  CA16 2253   5.368  -1.518   4.182  0.0000  0.0000  0.0000
  151MPD2  CA17 2254   5.358  -1.534   4.322  0.0000  0.0000  0.0000
  151MPD2  CA18 2255   5.273  -1.446   4.401  0.0000  0.0000  0.0000
  151MPD2  CA19 2256   5.232  -1.327   4.338  0.0000  0.0000  0.0000
  151MPD2  CA20 2257   5.250  -1.300   4.203  0.0000  0.0000  0.0000
  151MPD2  CA21 2258   5.313  -1.396   4.125  0.0000  0.0000  0.0000
  151MPD2  HA22 2259   5.412  -1.621   4.358  0.0000  0.0000  0.0000
  151MPD2  HA23 2260   5.178  -1.250   4.394  0.0000  0.0000  0.0000
  151MPD2  HA24 2261   5.216  -1.207   4.157  0.0000  0.0000  0.0000
  151MPD2  HA25 2262   5.321  -1.381   4.017  0.0000  0.0000  0.0000
  151MPD2  HN26 2263   5.519  -1.582   4.062  0.0000  0.0000  0.0000
  151MPD2  HN27 2264   5.189  -1.395   4.579  0.0000  0.0000  0.0000
  151MPD2  NB28 2265   5.429  -1.615   4.096  0.0000  0.0000  0.0000
  151MPD2  NB29 2266   5.246  -1.468   4.538  0.0000  0.0000  0.0000
  152MPD1   CA1 2267   3.683  -1.673   5.640  0.0000  0.0000  0.0000
  152MPD1   CA2 2268   3.811  -1.629   5.685  0.0000  0.0000  0.0000
  152MPD1   CA3 2269   3.923  -1.675   5.619  0.0000  0.0000  0.0000
  152MPD1   CA4 2270   3.911  -1.778   5.525  0.0000  0.0000  0.0000
  152MPD1   CA5 2271   3.789  -1.835   5.494  0.0000  0.0000  0.0000
  152MPD1   CA6 2272   3.675  -1.780   5.547  0.0000  0.0000  0.0000
  152MPD1  HA10 2273   3.580  -1.812   5.507  0.0000  0.0000  0.0000
  152MPD1   HA7 2274   3.817  -1.569   5.776  0.0000  0.0000  0.0000
  152MPD1   HA8 2275   4.004  -1.798   5.473  0.0000  0.0000  0.0000
  152MPD1   HA9 2276   3.788  -1.910   5.415  0.0000  0.0000  0.0000
  152MPD1  HN11 2277   3.495  -1.683   5.725  0.0000  0.0000  0.0000
  152MPD1  HN12 2278   4.057  -1.565   5.732  0.0000  0.0000  0.0000
  152MPD1  HN13 2279   4.124  -1.693   5.643  0.0000  0.0000  0.0000
  152MPD1  NB14 2280   3.566  -1.618   5.693  0.0000  0.0000  0.0000
  152MPD1  NH15 2281   4.047  -1.629   5.654  0.0000  0.0000  0.0000
  153MPD1   CA1 2282   2.227  -1.031   3.665  0.0000  0.0000  0.0000
  153MPD1   CA2 2283   2.166  -0.904   3.638  0.0000  0.0000  0.0000
  153MPD1   CA3 2284   2.251  -0.790   3.619  0.0000  0.0000  0.0000
  153MPD1   CA4 2285   2.387  -0.797   3.635  0.0000  0.0000  0.0000
  153MPD1   CA5 2286   2.438  -0.918   3.666  0.0000  0.0000  0.0000
  153MPD1   CA6 2287   2.362  -1.036   3.692  0.0000  0.0000  0.0000
  153MPD1  HA10 2288   2.414  -1.128   3.716  0.0000  0.0000  0.0000
  153MPD1   HA7 2289   2.057  -0.898   3.630  0.0000  0.0000  0.0000
  153MPD1   HA8 2290   2.459  -0.718   3.615  0.0000  0.0000  0.0000
  153MPD1   HA9 2291   2.544  -0.923   3.687  0.0000  0.0000  0.0000
  153MPD1  HN11 2292   2.052  -1.138   3.634  0.0000  0.0000  0.0000
  153MPD1  HN12 2293   2.252  -0.590   3.572  0.0000  0.0000  0.0000
  153MPD1  HN13 2294   2.092  -0.659   3.578  0.0000  0.0000  0.0000
  153MPD1  NB14 2295   2.149  -1.154   3.660  0.0000  0.0000  0.0000
  153MPD1  NH15 2296   2.192  -0.672   3.577  0.0000  0.0000  0.0000
  154MPD2  CA16 2297   5.540   2.101   5.440  0.0000  0.0000  0.0000
  154MPD2  CA17 2298   5.449   1.997   5.467  0.0000  0.0000  0.0000
  154MPD2  CA18 2299   5.312   2.021   5.470  0.0000  0.0000  0.0000
  154MPD2  CA19 2300   5.264   2.151   5.460  0.0000  0.0000  0.0000
  154MPD2  CA20 2301   5.354   2.256   5.439  0.0000  0.0000  0.0000
  154MPD2  CA21 2302   5.493   2.232   5.430  0.0000  0.0000  0.0000
  154MPD2  HA22 2303   5.481   1.894   5.482  0.0000  0.0000  0.0000
  154MPD2  HA23 2304   5.162   2.188   5.464  0.0000  0.0000  0.0000
  154MPD2  HA24 2305   5.324   2.360   5.431  0.0000  0.0000  0.0000
  154MPD2  HA25 2306   5.559   2.316   5.410  0.0000  0.0000  0.0000
  154MPD2  HN26 2307   5.695   1.981   5.475  0.0000  0.0000  0.0000
  154MPD2  HN27 2308   5.240   1.865   5.589  0.0000  0.0000  0.0000
  154MPD2  NB28 2309   5.679   2.074   5.439  0.0000  0.0000  0.0000
  154MPD2  NB29 2310   5.226   1.915   5.502  0.0000  0.0000  0.0000
  155MPD1   CA1 2311   0.419  -2.268   4.693  0.0000  0.0000  0.0000
  155MPD1   CA2 2312   0.307  -2.234   4.780  0.0000  0.0000  0.0000
  155MPD1   CA3 2313   0.189  -2.306   4.775  0.0000  0.0000  0.0000
  155MPD1   CA4 2314   0.170  -2.411   4.686  0.0000  0.0000  0.0000
  155MPD1   CA5 2315   0.274  -2.437   4.591  0.0000  0.0000  0.0000
  155MPD1   CA6 2316   0.387  -2.357   4.587  0.0000  0.0000  0.0000
  155MPD1  HA10 2317   0.462  -2.393   4.517  0.0000  0.0000  0.0000
  155MPD1   HA7 2318   0.313  -2.155   4.854  0.0000  0.0000  0.0000
  155MPD1   HA8 2319   0.080  -2.471   4.683  0.0000  0.0000  0.0000
  155MPD1   HA9 2320   0.269  -2.510   4.512  0.0000  0.0000  0.0000
  155MPD1  HN11 2321   0.608  -2.219   4.633  0.0000  0.0000  0.0000
  155MPD1  HN12 2322  -0.002  -2.323   4.850  0.0000  0.0000  0.0000
  155MPD1  HN13 2323   0.066  -2.179   4.887  0.0000  0.0000  0.0000
  155MPD1  NB14 2324   0.535  -2.185   4.694  0.0000  0.0000  0.0000
  155MPD1  NH15 2325   0.086  -2.276   4.867  0.0000  0.0000  0.0000
  156MPD2  CA16 2326   3.422  -1.047   2.515  0.0000  0.0000  0.0000
  156MPD2  CA17 2327   3.454  -0.914   2.480  0.0000  0.0000  0.0000
  156MPD2  CA18 2328   3.582  -0.887   2.430  0.0000  0.0000  0.0000
  156MPD2  CA19 2329   3.674  -0.992   2.414  0.0000  0.0000  0.0000
  156MPD2  CA20 2330   3.644  -1.119   2.461  0.0000  0.0000  0.0000
  156MPD2  CA21 2331   3.516  -1.153   2.503  0.0000  0.0000  0.0000
  156MPD2  HA22 2332   3.387  -0.832   2.503  0.0000  0.0000  0.0000
  156MPD2  HA23 2333   3.773  -0.962   2.379  0.0000  0.0000  0.0000
  156MPD2  HA24 2334   3.731  -1.184   2.463  0.0000  0.0000  0.0000
  156MPD2  HA25 2335   3.504  -1.256   2.535  0.0000  0.0000  0.0000
  156MPD2  HN26 2336   3.230  -1.104   2.508  0.0000  0.0000  0.0000
  156MPD2  HN27 2337   3.553  -0.730   2.306  0.0000  0.0000  0.0000
  156MPD2  NB28 2338   3.299  -1.076   2.578  0.0000  0.0000  0.0000
  156MPD2  NB29 2339   3.610  -0.757   2.385  0.0000  0.0000  0.0000
  157MPD2  CA16 2340   1.546   1.547   3.614  0.0000  0.0000  0.0000
  157MPD2  CA17 2341   1.685   1.567   3.582  0.0000  0.0000  0.0000
  157MPD2  CA18 2342   1.761   1.680   3.621  0.0000  0.0000  0.0000
  157MPD2  CA19 2343   1.691   1.790   3.675  0.0000  0.0000  0.0000
  157MPD2  CA20 2344   1.553   1.773   3.712  0.0000  0.0000  0.0000
  157MPD2  CA21 2345   1.484   1.654   3.682  0.0000  0.0000  0.0000
  157MPD2  HA22 2346   1.750   1.489   3.543  0.0000  0.0000  0.0000
  157MPD2  HA23 2347   1.739   1.885   3.698  0.0000  0.0000  0.0000
  157MPD2  HA24 2348   1.504   1.856   3.762  0.0000  0.0000  0.0000
  157MPD2  HA25 2349   1.381   1.637   3.713  0.0000  0.0000  0.0000
  157MPD2  HN26 2350   1.405   1.415   3.666  0.0000  0.0000  0.0000
  157MPD2  HN27 2351   1.915   1.647   3.490  0.0000  0.0000  0.0000
  157MPD2  NB28 2352   1.481   1.425   3.599  0.0000  0.0000  0.0000
  157MPD2  NB29 2353   1.894   1.689   3.580  0.0000  0.0000  0.0000
  158MPD2  CA16 2354   3.685  -2.208   3.619  0.0000  0.0000  0.0000
  158MPD2  CA17 2355   3.606  -2.195   3.734  0.0000  0.0000  0.0000
  158MPD2  CA18 2356   3.562  -2.315   3.796  0.0000  0.0000  0.0000
  158MPD2  CA19 2357   3.607  -2.439   3.745  0.0000  0.0000  0.0000
  158MPD2  CA20 2358   3.673  -2.448   3.626  0.0000  0.0000  0.0000
  158MPD2  CA21 2359   3.718  -2.330   3.560  0.0000  0.0000  0.0000
  158MPD2  HA22 2360   3.581  -2.097   3.772  0.0000  0.0000  0.0000
  158MPD2  HA23 2361   3.601  -2.528   3.806  0.0000  0.0000  0.0000
  158MPD2  HA24 2362   3.704  -2.544   3.587  0.0000  0.0000  0.0000
  158MPD2  HA25 2363   3.784  -2.333   3.475  0.0000  0.0000  0.0000
  158MPD2  HN26 2364   3.694  -2.115   3.441  0.0000  0.0000  0.0000
  158MPD2  HN27 2365   3.397  -2.315   3.915  0.0000  0.0000  0.0000
  158MPD2  NB28 2366   3.718  -2.104   3.539  0.0000  0.0000  0.0000
  158MPD2  NB29 2367   3.498  -2.304   3.921  0.0000  0.0000  0.0000
  159MPD2  CA16 2368   5.209   0.693   5.551  0.0000  0.0000  0.0000
  159MPD2  CA17 2369   5.078   0.663   5.516  0.0000  0.0000  0.0000
  159MPD2  CA18 2370   4.967   0.699   5.597  0.0000  0.0000  0.0000
  159MPD2  CA19 2371   4.998   0.760   5.722  0.0000  0.0000  0.0000
  159MPD2  CA20 2372   5.134   0.769   5.762  0.0000  0.0000  0.0000
  159MPD2  CA21 2373   5.245   0.743   5.676  0.0000  0.0000  0.0000
  159MPD2  HA22 2374   5.056   0.629   5.415  0.0000  0.0000  0.0000
  159MPD2  HA23 2375   4.913   0.787   5.785  0.0000  0.0000  0.0000
  159MPD2  HA24 2376   5.162   0.811   5.858  0.0000  0.0000  0.0000
  159MPD2  HA25 2377   5.346   0.773   5.702  0.0000  0.0000  0.0000
  159MPD2  HN26 2378   5.271   0.744   5.374  0.0000  0.0000  0.0000
  159MPD2  HN27 2379   4.827   0.589   5.497  0.0000  0.0000  0.0000
  159MPD2  NB28 2380   5.304   0.687   5.451  0.0000  0.0000  0.0000
  159MPD2  NB29 2381   4.831   0.671   5.557  0.0000  0.0000  0.0000
  160MPD1   CA1 2382   1.129  -2.417   4.398  0.0000  0.0000  0.0000
  160MPD1   CA2 2383   1.197  -2.537   4.371  0.0000  0.0000  0.0000
  160MPD1   CA3 2384   1.290  -2.549   4.269  0.0000  0.0000  0.0000
  160MPD1   CA4 2385   1.321  -2.443   4.192  0.0000  0.0000  0.0000
  160MPD1   CA5 2386   1.266  -2.318   4.221  0.0000  0.0000  0.0000
  160MPD1   CA6 2387   1.165  -2.310   4.316  0.0000  0.0000  0.0000
  160MPD1  HA10 2388   1.110  -2.218   4.331  0.0000  0.0000  0.0000
  160MPD1   HA7 2389   1.175  -2.620   4.437  0.0000  0.0000  0.0000
  160MPD1   HA8 2390   1.387  -2.454   4.106  0.0000  0.0000  0.0000
  160MPD1   HA9 2391   1.298  -2.231   4.164  0.0000  0.0000  0.0000
  160MPD1  HN11 2392   0.955  -2.447   4.485  0.0000  0.0000  0.0000
  160MPD1  HN12 2393   1.338  -2.747   4.306  0.0000  0.0000  0.0000
  160MPD1  HN13 2394   1.452  -2.678   4.212  0.0000  0.0000  0.0000
  160MPD1  NB14 2395   1.043  -2.403   4.509  0.0000  0.0000  0.0000
  160MPD1  NH15 2396   1.355  -2.672   4.241  0.0000  0.0000  0.0000
  161MPD1   CA1 2397   4.552   0.059   3.844  0.0000  0.0000  0.0000
  161MPD1   CA2 2398   4.642   0.156   3.897  0.0000  0.0000  0.0000
  161MPD1   CA3 2399   4.677   0.276   3.825  0.0000  0.0000  0.0000
  161MPD1   CA4 2400   4.624   0.289   3.696  0.0000  0.0000  0.0000
  161MPD1   CA5 2401   4.539   0.192   3.648  0.0000  0.0000  0.0000
  161MPD1   CA6 2402   4.499   0.083   3.717  0.0000  0.0000  0.0000
  161MPD1  HA10 2403   4.423   0.023   3.667  0.0000  0.0000  0.0000
  161MPD1   HA7 2404   4.698   0.135   3.988  0.0000  0.0000  0.0000
  161MPD1   HA8 2405   4.665   0.369   3.634  0.0000  0.0000  0.0000
  161MPD1   HA9 2406   4.496   0.207   3.549  0.0000  0.0000  0.0000
  161MPD1  HN11 2407   4.601  -0.126   3.937  0.0000  0.0000  0.0000
  161MPD1  HN12 2408   4.768   0.456   3.827  0.0000  0.0000  0.0000
  161MPD1  HN13 2409   4.796   0.366   3.965  0.0000  0.0000  0.0000
  161MPD1  NB14 2410   4.528  -0.058   3.918  0.0000  0.0000  0.0000
  161MPD1  NH15 2411   4.769   0.363   3.867  0.0000  0.0000  0.0000
  162MPD2  CA16 2412   4.358  -0.068   4.503  0.0000  0.0000  0.0000
  162MPD2  CA17 2413   4.365   0.064   4.557  0.0000  0.0000  0.0000
  162MPD2  CA18 2414   4.486   0.138   4.564  0.0000  0.0000  0.0000
  162MPD2  CA19 2415   4.607   0.081   4.516  0.0000  0.0000  0.0000
  162MPD2  CA20 2416   4.604  -0.051   4.471  0.0000  0.0000  0.0000
  162MPD2  CA21 2417   4.484  -0.124   4.473  0.0000  0.0000  0.0000
  162MPD2  HA22 2418   4.270   0.115   4.569  0.0000  0.0000  0.0000
  162MPD2  HA23 2419   4.702   0.126   4.542  0.0000  0.0000  0.0000
  162MPD2  HA24 2420   4.693  -0.104   4.441  0.0000  0.0000  0.0000
  162MPD2  HA25 2421   4.488  -0.223   4.427  0.0000  0.0000  0.0000
  162MPD2  HN26 2422   4.161  -0.107   4.563  0.0000  0.0000  0.0000
  162MPD2  HN27 2423   4.395   0.296   4.649  0.0000  0.0000  0.0000
  162MPD2  NB28 2424   4.230  -0.133   4.494  0.0000  0.0000  0.0000
  162MPD2  NB29 2425   4.484   0.274   4.606  0.0000  0.0000  0.0000
  163MPD1   CA1 2426   1.791  -2.426   4.638  0.0000  0.0000  0.0000
  163MPD1   CA2 2427   1.908  -2.414   4.713  0.0000  0.0000  0.0000
  163MPD1   CA3 2428   2.031  -2.475   4.675  0.0000  0.0000  0.0000
  163MPD1   CA4 2429   2.026  -2.564   4.561  0.0000  0.0000  0.0000
  163MPD1   CA5 2430   1.914  -2.562   4.486  0.0000  0.0000  0.0000
  163MPD1   CA6 2431   1.795  -2.495   4.520  0.0000  0.0000  0.0000
  163MPD1  HA10 2432   1.713  -2.503   4.449  0.0000  0.0000  0.0000
  163MPD1   HA7 2433   1.907  -2.348   4.799  0.0000  0.0000  0.0000
  163MPD1   HA8 2434   2.115  -2.622   4.540  0.0000  0.0000  0.0000
  163MPD1   HA9 2435   1.916  -2.627   4.399  0.0000  0.0000  0.0000
  163MPD1  HN11 2436   1.680  -2.276   4.735  0.0000  0.0000  0.0000
  163MPD1  HN12 2437   2.194  -2.557   4.750  0.0000  0.0000  0.0000
  163MPD1  HN13 2438   2.130  -2.432   4.844  0.0000  0.0000  0.0000
  163MPD1  NB14 2439   1.668  -2.355   4.673  0.0000  0.0000  0.0000
  163MPD1  NH15 2440   2.145  -2.469   4.751  0.0000  0.0000  0.0000
  164MPD1   CA1 2441   0.051  -0.260   5.391  0.0000  0.0000  0.0000
  164MPD1   CA2 2442   0.012  -0.230   5.524  0.0000  0.0000  0.0000
  164MPD1   CA3 2443  -0.037  -0.335   5.608  0.0000  0.0000  0.0000
  164MPD1   CA4 2444  -0.029  -0.469   5.568  0.0000  0.0000  0.0000
  164MPD1   CA5 2445   0.025  -0.499   5.443  0.0000  0.0000  0.0000
  164MPD1   CA6 2446   0.059  -0.394   5.358  0.0000  0.0000  0.0000
  164MPD1  HA10 2447   0.101  -0.417   5.261  0.0000  0.0000  0.0000
  164MPD1   HA7 2448   0.024  -0.127   5.559  0.0000  0.0000  0.0000
  164MPD1   HA8 2449  -0.059  -0.551   5.633  0.0000  0.0000  0.0000
  164MPD1   HA9 2450   0.052  -0.598   5.410  0.0000  0.0000  0.0000
  164MPD1  HN11 2451   0.185  -0.197   5.239  0.0000  0.0000  0.0000
  164MPD1  HN12 2452  -0.132  -0.224   5.759  0.0000  0.0000  0.0000
  164MPD1  HN13 2453  -0.101  -0.389   5.799  0.0000  0.0000  0.0000
  164MPD1  NB14 2454   0.106  -0.165   5.294  0.0000  0.0000  0.0000
  164MPD1  NH15 2455  -0.087  -0.311   5.735  0.0000  0.0000  0.0000
  165MPD2  CA16 2456   2.435  -1.160   3.190  0.0000  0.0000  0.0000
  165MPD2  CA17 2457   2.349  -1.183   3.083  0.0000  0.0000  0.0000
  165MPD2  CA18 2458   2.228  -1.114   3.070  0.0000  0.0000  0.0000
  165MPD2  CA19 2459   2.192  -1.024   3.173  0.0000  0.0000  0.0000
  165MPD2  CA20 2460   2.279  -0.997   3.276  0.0000  0.0000  0.0000
  165MPD2  CA21 2461   2.400  -1.067   3.288  0.0000  0.0000  0.0000
  165MPD2  HA22 2462   2.382  -1.254   3.007  0.0000  0.0000  0.0000
  165MPD2  HA23 2463   2.108  -0.956   3.161  0.0000  0.0000  0.0000
  165MPD2  HA24 2464   2.252  -0.926   3.354  0.0000  0.0000  0.0000
  165MPD2  HA25 2465   2.461  -1.033   3.371  0.0000  0.0000  0.0000
  165MPD2  HN26 2466   2.642  -1.166   3.228  0.0000  0.0000  0.0000
  165MPD2  HN27 2467   2.036  -1.103   2.986  0.0000  0.0000  0.0000
  165MPD2  NB28 2468   2.568  -1.228   3.197  0.0000  0.0000  0.0000
  165MPD2  NB29 2469   2.128  -1.141   2.970  0.0000  0.0000  0.0000
  166MPD2  CA16 2470   1.791  -1.400   3.220  0.0000  0.0000  0.0000
  166MPD2  CA17 2471   1.726  -1.289   3.158  0.0000  0.0000  0.0000
  166MPD2  CA18 2472   1.689  -1.303   3.021  0.0000  0.0000  0.0000
  166MPD2  CA19 2473   1.700  -1.427   2.954  0.0000  0.0000  0.0000
  166MPD2  CA20 2474   1.773  -1.530   3.012  0.0000  0.0000  0.0000
  166MPD2  CA21 2475   1.814  -1.520   3.149  0.0000  0.0000  0.0000
  166MPD2  HA22 2476   1.713  -1.197   3.214  0.0000  0.0000  0.0000
  166MPD2  HA23 2477   1.666  -1.433   2.851  0.0000  0.0000  0.0000
  166MPD2  HA24 2478   1.800  -1.619   2.957  0.0000  0.0000  0.0000
  166MPD2  HA25 2479   1.857  -1.608   3.197  0.0000  0.0000  0.0000
  166MPD2  HN26 2480   1.931  -1.353   3.355  0.0000  0.0000  0.0000
  166MPD2  HN27 2481   1.547  -1.157   2.993  0.0000  0.0000  0.0000
  166MPD2  NB28 2482   1.840  -1.396   3.352  0.0000  0.0000  0.0000
  166MPD2  NB29 2483   1.624  -1.204   2.947  0.0000  0.0000  0.0000
  167TMC2   C20 2484   1.912  -1.379   2.447  0.0000  0.0000  0.0000
  167TMC2  CA21 2485   1.907  -1.309   2.581  0.0000  0.0000  0.0000
  167TMC2  CA22 2486   1.786  -1.277   2.633  0.0000  0.0000  0.0000
  167TMC2  CA23 2487   1.779  -1.214   2.755  0.0000  0.0000  0.0000
  167TMC2  CA24 2488   1.891  -1.189   2.828  0.0000  0.0000  0.0000
  167TMC2  CA25 2489   2.018  -1.220   2.777  0.0000  0.0000  0.0000
  167TMC2  CA26 2490   2.025  -1.290   2.659  0.0000  0.0000  0.0000
  167TMC2  CB27 2491   1.646  -1.182   2.813  0.0000  0.0000  0.0000
  167TMC2  CB28 2492   2.142  -1.219   2.860  0.0000  0.0000  0.0000
  167TMC2  HA29 2493   1.693  -1.301   2.581  0.0000  0.0000  0.0000
  167TMC2  HA30 2494   1.879  -1.147   2.928  0.0000  0.0000  0.0000
  167TMC2  HA31 2495   2.119  -1.315   2.611  0.0000  0.0000  0.0000
  167TMC2  HO32 2496   2.058  -1.466   2.528  0.0000  0.0000  0.0000
  167TMC2   O33 2497   1.818  -1.379   2.374  0.0000  0.0000  0.0000
  167TMC2   O34 2498   1.565  -1.131   2.742  0.0000  0.0000  0.0000
  167TMC2   O35 2499   2.247  -1.276   2.819  0.0000  0.0000  0.0000
  167TMC2  OH36 2500   2.019  -1.455   2.439  0.0000  0.0000  0.0000
  168MPD2  CA16 2501   3.030  -2.456   5.391  0.0000  0.0000  0.0000
  168MPD2  CA17 2502   2.907  -2.516   5.345  0.0000  0.0000  0.0000
  168MPD2  CA18 2503   2.876  -2.653   5.354  0.0000  0.0000  0.0000
  168MPD2  CA19 2504   2.972  -2.734   5.425  0.0000  0.0000  0.0000
  168MPD2  CA20 2505   3.089  -2.672   5.479  0.0000  0.0000  0.0000
  168MPD2  CA21 2506   3.123  -2.543   5.454  0.0000  0.0000  0.0000
  168MPD2  HA22 2507   2.832  -2.458   5.293  0.0000  0.0000  0.0000
  168MPD2  HA23 2508   2.946  -2.836   5.449  0.0000  0.0000  0.0000
  168MPD2  HA24 2509   3.154  -2.741   5.532  0.0000  0.0000  0.0000
  168MPD2  HA25 2510   3.220  -2.508   5.489  0.0000  0.0000  0.0000
  168MPD2  HN26 2511   3.165  -2.301   5.366  0.0000  0.0000  0.0000
  168MPD2  HN27 2512   2.714  -2.754   5.403  0.0000  0.0000  0.0000
  168MPD2  NB28 2513   3.065  -2.322   5.371  0.0000  0.0000  0.0000
  168MPD2  NB29 2514   2.753  -2.707   5.322  0.0000  0.0000  0.0000
  169MPD2  CA16 2515   3.490  -2.512   5.131  0.0000  0.0000  0.0000
  169MPD2  CA17 2516   3.352  -2.519   5.112  0.0000  0.0000  0.0000
  169MPD2  CA18 2517   3.298  -2.587   4.996  0.0000  0.0000  0.0000
  169MPD2  CA19 2518   3.379  -2.639   4.894  0.0000  0.0000  0.0000
  169MPD2  CA20 2519   3.518  -2.628   4.911  0.0000  0.0000  0.0000
  169MPD2  CA21 2520   3.572  -2.568   5.030  0.0000  0.0000  0.0000
  169MPD2  HA22 2521   3.281  -2.473   5.180  0.0000  0.0000  0.0000
  169MPD2  HA23 2522   3.342  -2.698   4.810  0.0000  0.0000  0.0000
  169MPD2  HA24 2523   3.576  -2.657   4.824  0.0000  0.0000  0.0000
  169MPD2  HA25 2524   3.680  -2.554   5.038  0.0000  0.0000  0.0000
  169MPD2  HN26 2525   3.648  -2.489   5.263  0.0000  0.0000  0.0000
  169MPD2  HN27 2526   3.129  -2.655   5.079  0.0000  0.0000  0.0000
  169MPD2  NB28 2527   3.554  -2.457   5.244  0.0000  0.0000  0.0000
  169MPD2  NB29 2528   3.159  -2.607   4.995  0.0000  0.0000  0.0000
  170TMC2   C20 2529   2.596  -2.497   4.779  0.0000  0.0000  0.0000
  170TMC2  CA21 2530   2.695  -2.568   4.856  0.0000  0.0000  0.0000
  170TMC2  CA22 2531   2.831  -2.562   4.827  0.0000  0.0000  0.0000
  170TMC2  CA23 2532   2.923  -2.610   4.919  0.0000  0.0000  0.0000
  170TMC2  CA24 2533   2.880  -2.654   5.041  0.0000  0.0000  0.0000
  170TMC2  CA25 2534   2.745  -2.666   5.071  0.0000  0.0000  0.0000
  170TMC2  CA26 2535   2.650  -2.622   4.980  0.0000  0.0000  0.0000
  170TMC2  CB27 2536   3.068  -2.581   4.891  0.0000  0.0000  0.0000
  170TMC2  CB28 2537   2.682  -2.721   5.200  0.0000  0.0000  0.0000
  170TMC2  HA29 2538   2.873  -2.521   4.736  0.0000  0.0000  0.0000
  170TMC2  HA30 2539   2.949  -2.690   5.116  0.0000  0.0000  0.0000
  170TMC2  HA31 2540   2.545  -2.614   5.005  0.0000  0.0000  0.0000
  170TMC2  HO32 2541   2.714  -2.525   4.637  0.0000  0.0000  0.0000
  170TMC2   O33 2542   2.491  -2.450   4.824  0.0000  0.0000  0.0000
  170TMC2   O34 2543   3.099  -2.543   4.782  0.0000  0.0000  0.0000
  170TMC2   O35 2544   2.574  -2.778   5.206  0.0000  0.0000  0.0000
  170TMC2  OH36 2545   2.631  -2.476   4.651  0.0000  0.0000  0.0000
  171MPD1   CA1 2546   1.743   1.030   3.574  0.0000  0.0000  0.0000
  171MPD1   CA2 2547   1.872   1.073   3.541  0.0000  0.0000  0.0000
  171MPD1   CA3 2548   1.938   1.172   3.617  0.0000  0.0000  0.0000
  171MPD1   CA4 2549   1.867   1.233   3.719  0.0000  0.0000  0.0000
  171MPD1   CA5 2550   1.731   1.200   3.742  0.0000  0.0000  0.0000
  171MPD1   CA6 2551   1.672   1.091   3.677  0.0000  0.0000  0.0000
  171MPD1  HA10 2552   1.570   1.059   3.698  0.0000  0.0000  0.0000
  171MPD1   HA7 2553   1.922   1.034   3.452  0.0000  0.0000  0.0000
  171MPD1   HA8 2554   1.919   1.299   3.788  0.0000  0.0000  0.0000
  171MPD1   HA9 2555   1.670   1.259   3.809  0.0000  0.0000  0.0000
  171MPD1  HN11 2556   1.746   0.894   3.423  0.0000  0.0000  0.0000
  171MPD1  HN12 2557   2.116   1.276   3.653  0.0000  0.0000  0.0000
  171MPD1  HN13 2558   2.118   1.181   3.508  0.0000  0.0000  0.0000
  171MPD1  NB14 2559   1.689   0.919   3.502  0.0000  0.0000  0.0000
  171MPD1  NH15 2560   2.068   1.211   3.591  0.0000  0.0000  0.0000
  172MPD1   CA1 2561   0.717  -0.207   4.147  0.0000  0.0000  0.0000
  172MPD1   CA2 2562   0.755  -0.150   4.030  0.0000  0.0000  0.0000
  172MPD1   CA3 2563   0.670  -0.143   3.922  0.0000  0.0000  0.0000
  172MPD1   CA4 2564   0.545  -0.194   3.930  0.0000  0.0000  0.0000
  172MPD1   CA5 2565   0.500  -0.260   4.048  0.0000  0.0000  0.0000
  172MPD1   CA6 2566   0.588  -0.265   4.159  0.0000  0.0000  0.0000
  172MPD1  HA10 2567   0.565  -0.322   4.248  0.0000  0.0000  0.0000
  172MPD1   HA7 2568   0.857  -0.114   4.024  0.0000  0.0000  0.0000
  172MPD1   HA8 2569   0.484  -0.192   3.840  0.0000  0.0000  0.0000
  172MPD1   HA9 2570   0.405  -0.312   4.056  0.0000  0.0000  0.0000
  172MPD1  HN11 2571   0.866  -0.310   4.244  0.0000  0.0000  0.0000
  172MPD1  HN12 2572   0.663  -0.056   3.736  0.0000  0.0000  0.0000
  172MPD1  HN13 2573   0.821  -0.070   3.787  0.0000  0.0000  0.0000
  172MPD1  NB14 2574   0.812  -0.224   4.251  0.0000  0.0000  0.0000
  172MPD1  NH15 2575   0.726  -0.102   3.800  0.0000  0.0000  0.0000
  173MPD1   CA1 2576   1.083  -1.584   4.960  0.0000  0.0000  0.0000
  173MPD1   CA2 2577   1.084  -1.583   5.096  0.0000  0.0000  0.0000
  173MPD1   CA3 2578   1.137  -1.478   5.171  0.0000  0.0000  0.0000
  173MPD1   CA4 2579   1.176  -1.364   5.101  0.0000  0.0000  0.0000
  173MPD1   CA5 2580   1.183  -1.369   4.960  0.0000  0.0000  0.0000
  173MPD1   CA6 2581   1.138  -1.474   4.890  0.0000  0.0000  0.0000
  173MPD1  HA10 2582   1.141  -1.479   4.781  0.0000  0.0000  0.0000
  173MPD1   HA7 2583   1.048  -1.674   5.144  0.0000  0.0000  0.0000
  173MPD1   HA8 2584   1.219  -1.283   5.158  0.0000  0.0000  0.0000
  173MPD1   HA9 2585   1.223  -1.287   4.902  0.0000  0.0000  0.0000
  173MPD1  HN11 2586   1.108  -1.751   4.833  0.0000  0.0000  0.0000
  173MPD1  HN12 2587   1.117  -1.575   5.351  0.0000  0.0000  0.0000
  173MPD1  HN13 2588   1.153  -1.403   5.361  0.0000  0.0000  0.0000
  173MPD1  NB14 2589   1.037  -1.698   4.882  0.0000  0.0000  0.0000
  173MPD1  NH15 2590   1.152  -1.490   5.309  0.0000  0.0000  0.0000
  174MPD2  CA16 2591   4.465   1.172   5.333  0.0000  0.0000  0.0000
  174MPD2  CA17 2592   4.547   1.261   5.396  0.0000  0.0000  0.0000
  174MPD2  CA18 2593   4.672   1.297   5.339  0.0000  0.0000  0.0000
  174MPD2  CA19 2594   4.706   1.237   5.211  0.0000  0.0000  0.0000
  174MPD2  CA20 2595   4.616   1.147   5.147  0.0000  0.0000  0.0000
  174MPD2  CA21 2596   4.496   1.122   5.210  0.0000  0.0000  0.0000
  174MPD2  HA22 2597   4.516   1.295   5.494  0.0000  0.0000  0.0000
  174MPD2  HA23 2598   4.798   1.271   5.164  0.0000  0.0000  0.0000
  174MPD2  HA24 2599   4.633   1.110   5.046  0.0000  0.0000  0.0000
  174MPD2  HA25 2600   4.422   1.062   5.157  0.0000  0.0000  0.0000
  174MPD2  HN26 2601   4.298   1.051   5.331  0.0000  0.0000  0.0000
  174MPD2  HN27 2602   4.760   1.371   5.502  0.0000  0.0000  0.0000
  174MPD2  NB28 2603   4.339   1.126   5.385  0.0000  0.0000  0.0000
  174MPD2  NB29 2604   4.763   1.386   5.402  0.0000  0.0000  0.0000
  175MPD1   CA1 2605   1.295  -0.267   3.130  0.0000  0.0000  0.0000
  175MPD1   CA2 2606   1.352  -0.292   3.007  0.0000  0.0000  0.0000
  175MPD1   CA3 2607   1.469  -0.227   2.962  0.0000  0.0000  0.0000
  175MPD1   CA4 2608   1.518  -0.114   3.038  0.0000  0.0000  0.0000
  175MPD1   CA5 2609   1.473  -0.100   3.165  0.0000  0.0000  0.0000
  175MPD1   CA6 2610   1.359  -0.174   3.214  0.0000  0.0000  0.0000
  175MPD1  HA10 2611   1.332  -0.154   3.317  0.0000  0.0000  0.0000
  175MPD1   HA7 2612   1.304  -0.373   2.952  0.0000  0.0000  0.0000
  175MPD1   HA8 2613   1.597  -0.053   2.995  0.0000  0.0000  0.0000
  175MPD1   HA9 2614   1.524  -0.028   3.229  0.0000  0.0000  0.0000
  175MPD1  HN11 2615   1.173  -0.418   3.139  0.0000  0.0000  0.0000
  175MPD1  HN12 2616   1.618  -0.209   2.825  0.0000  0.0000  0.0000
  175MPD1  HN13 2617   1.505  -0.333   2.797  0.0000  0.0000  0.0000
  175MPD1  NB14 2618   1.176  -0.321   3.168  0.0000  0.0000  0.0000
  175MPD1  NH15 2619   1.527  -0.246   2.844  0.0000  0.0000  0.0000
  176MPD1   CA1 2620   1.658   0.211   5.860  0.0000  0.0000  0.0000
  176MPD1   CA2 2621   1.717   0.291   5.958  0.0000  0.0000  0.0000
  176MPD1   CA3 2622   1.646   0.349   6.064  0.0000  0.0000  0.0000
  176MPD1   CA4 2623   1.510   0.310   6.076  0.0000  0.0000  0.0000
  176MPD1   CA5 2624   1.452   0.241   5.970  0.0000  0.0000  0.0000
  176MPD1   CA6 2625   1.522   0.191   5.859  0.0000  0.0000  0.0000
  176MPD1  HA10 2626   1.471   0.136   5.781  0.0000  0.0000  0.0000
  176MPD1   HA7 2627   1.825   0.299   5.948  0.0000  0.0000  0.0000
  176MPD1   HA8 2628   1.440   0.343   6.152  0.0000  0.0000  0.0000
  176MPD1   HA9 2629   1.346   0.216   5.979  0.0000  0.0000  0.0000
  176MPD1  HN11 2630   1.795   0.215   5.695  0.0000  0.0000  0.0000
  176MPD1  HN12 2631   1.792   0.467   6.133  0.0000  0.0000  0.0000
  176MPD1  HN13 2632   1.639   0.507   6.188  0.0000  0.0000  0.0000
  176MPD1  NB14 2633   1.743   0.159   5.762  0.0000  0.0000  0.0000
  176MPD1  NH15 2634   1.701   0.432   6.160  0.0000  0.0000  0.0000
  177MPD1   CA1 2635   1.248   1.979   5.826  0.0000  0.0000  0.0000
  177MPD1   CA2 2636   1.232   1.833   5.828  0.0000  0.0000  0.0000
  177MPD1   CA3 2637   1.107   1.776   5.799  0.0000  0.0000  0.0000
  177MPD1   CA4 2638   0.998   1.855   5.763  0.0000  0.0000  0.0000
  177MPD1   CA5 2639   1.013   1.997   5.765  0.0000  0.0000  0.0000
  177MPD1   CA6 2640   1.136   2.056   5.792  0.0000  0.0000  0.0000
  177MPD1  HA10 2641   1.134   2.164   5.804  0.0000  0.0000  0.0000
  177MPD1   HA7 2642   1.319   1.772   5.851  0.0000  0.0000  0.0000
  177MPD1   HA8 2643   0.900   1.813   5.744  0.0000  0.0000  0.0000
  177MPD1   HA9 2644   0.930   2.066   5.753  0.0000  0.0000  0.0000
  177MPD1  HN11 2645   1.452   1.961   5.831  0.0000  0.0000  0.0000
  177MPD1  HN12 2646   1.170   1.584   5.825  0.0000  0.0000  0.0000
  177MPD1  HN13 2647   0.996   1.604   5.790  0.0000  0.0000  0.0000
  177MPD1  NB14 2648   1.379   2.031   5.835  0.0000  0.0000  0.0000
  177MPD1  NH15 2649   1.088   1.641   5.806  0.0000  0.0000  0.0000
  178MPD2  CA16 2650   2.981   1.000   5.245  0.0000  0.0000  0.0000
  178MPD2  CA17 2651   2.916   0.879   5.209  0.0000  0.0000  0.0000
  178MPD2  CA18 2652   2.996   0.779   5.152  0.0000  0.0000  0.0000
  178MPD2  CA19 2653   3.132   0.796   5.119  0.0000  0.0000  0.0000
  178MPD2  CA20 2654   3.188   0.920   5.148  0.0000  0.0000  0.0000
  178MPD2  CA21 2655   3.113   1.021   5.211  0.0000  0.0000  0.0000
  178MPD2  HA22 2656   2.816   0.853   5.243  0.0000  0.0000  0.0000
  178MPD2  HA23 2657   3.191   0.720   5.068  0.0000  0.0000  0.0000
  178MPD2  HA24 2658   3.294   0.933   5.126  0.0000  0.0000  0.0000
  178MPD2  HA25 2659   3.166   1.112   5.237  0.0000  0.0000  0.0000
  178MPD2  HN26 2660   2.868   1.169   5.261  0.0000  0.0000  0.0000
  178MPD2  HN27 2661   2.930   0.631   5.024  0.0000  0.0000  0.0000
  178MPD2  NB28 2662   2.905   1.095   5.320  0.0000  0.0000  0.0000
  178MPD2  NB29 2663   2.939   0.653   5.123  0.0000  0.0000  0.0000
  179MPD1   CA1 2664   2.134  -1.181   4.073  0.0000  0.0000  0.0000
  179MPD1   CA2 2665   2.179  -1.294   4.143  0.0000  0.0000  0.0000
  179MPD1   CA3 2666   2.102  -1.414   4.139  0.0000  0.0000  0.0000
  179MPD1   CA4 2667   1.971  -1.409   4.085  0.0000  0.0000  0.0000
  179MPD1   CA5 2668   1.928  -1.297   4.017  0.0000  0.0000  0.0000
  179MPD1   CA6 2669   2.009  -1.185   4.013  0.0000  0.0000  0.0000
  179MPD1  HA10 2670   1.974  -1.121   3.933  0.0000  0.0000  0.0000
  179MPD1   HA7 2671   2.274  -1.281   4.193  0.0000  0.0000  0.0000
  179MPD1   HA8 2672   1.905  -1.495   4.086  0.0000  0.0000  0.0000
  179MPD1   HA9 2673   1.839  -1.294   3.954  0.0000  0.0000  0.0000
  179MPD1  HN11 2674   2.151  -0.986   4.032  0.0000  0.0000  0.0000
  179MPD1  HN12 2675   2.212  -1.508   4.292  0.0000  0.0000  0.0000
  179MPD1  HN13 2676   2.090  -1.601   4.220  0.0000  0.0000  0.0000
  179MPD1  NB14 2677   2.210  -1.067   4.049  0.0000  0.0000  0.0000
  179MPD1  NH15 2678   2.150  -1.519   4.213  0.0000  0.0000  0.0000
  180MPD1   CA1 2679   2.807   0.146   5.803  0.0000  0.0000  0.0000
  180MPD1   CA2 2680   2.823   0.156   5.943  0.0000  0.0000  0.0000
  180MPD1   CA3 2681   2.799   0.046   6.031  0.0000  0.0000  0.0000
  180MPD1   CA4 2682   2.738  -0.065   5.979  0.0000  0.0000  0.0000
  180MPD1   CA5 2683   2.704  -0.065   5.849  0.0000  0.0000  0.0000
  180MPD1   CA6 2684   2.751   0.030   5.755  0.0000  0.0000  0.0000
  180MPD1  HA10 2685   2.727   0.005   5.652  0.0000  0.0000  0.0000
  180MPD1   HA7 2686   2.862   0.252   5.976  0.0000  0.0000  0.0000
  180MPD1   HA8 2687   2.697  -0.145   6.041  0.0000  0.0000  0.0000
  180MPD1   HA9 2688   2.656  -0.155   5.809  0.0000  0.0000  0.0000
  180MPD1  HN11 2689   2.927   0.291   5.706  0.0000  0.0000  0.0000
  180MPD1  HN12 2690   2.885   0.114   6.207  0.0000  0.0000  0.0000
  180MPD1  HN13 2691   2.797  -0.025   6.224  0.0000  0.0000  0.0000
  180MPD1  NB14 2692   2.831   0.258   5.713  0.0000  0.0000  0.0000
  180MPD1  NH15 2693   2.806   0.061   6.172  0.0000  0.0000  0.0000
  181MPD1   CA1 2694   2.259   0.632   2.790  0.0000  0.0000  0.0000
  181MPD1   CA2 2695   2.135   0.695   2.811  0.0000  0.0000  0.0000
  181MPD1   CA3 2696   2.017   0.620   2.839  0.0000  0.0000  0.0000
  181MPD1   CA4 2697   2.026   0.482   2.847  0.0000  0.0000  0.0000
  181MPD1   CA5 2698   2.152   0.420   2.830  0.0000  0.0000  0.0000
  181MPD1   CA6 2699   2.272   0.495   2.807  0.0000  0.0000  0.0000
  181MPD1  HA10 2700   2.364   0.438   2.798  0.0000  0.0000  0.0000
  181MPD1   HA7 2701   2.131   0.803   2.808  0.0000  0.0000  0.0000
  181MPD1   HA8 2702   1.939   0.419   2.864  0.0000  0.0000  0.0000
  181MPD1   HA9 2703   2.160   0.312   2.838  0.0000  0.0000  0.0000
  181MPD1  HN11 2704   2.390   0.791   2.823  0.0000  0.0000  0.0000
  181MPD1  HN12 2705   1.896   0.784   2.865  0.0000  0.0000  0.0000
  181MPD1  HN13 2706   1.822   0.633   2.904  0.0000  0.0000  0.0000
  181MPD1  NB14 2707   2.377   0.711   2.761  0.0000  0.0000  0.0000
  181MPD1  NH15 2708   1.896   0.683   2.856  0.0000  0.0000  0.0000
  182MPD2  CA16 2709   1.201   0.445   3.176  0.0000  0.0000  0.0000
  182MPD2  CA17 2710   1.240   0.544   3.266  0.0000  0.0000  0.0000
  182MPD2  CA18 2711   1.269   0.675   3.219  0.0000  0.0000  0.0000
  182MPD2  CA19 2712   1.265   0.697   3.080  0.0000  0.0000  0.0000
  182MPD2  CA20 2713   1.241   0.598   2.999  0.0000  0.0000  0.0000
  182MPD2  CA21 2714   1.203   0.471   3.034  0.0000  0.0000  0.0000
  182MPD2  HA22 2715   1.239   0.526   3.373  0.0000  0.0000  0.0000
  182MPD2  HA23 2716   1.277   0.798   3.041  0.0000  0.0000  0.0000
  182MPD2  HA24 2717   1.252   0.620   2.893  0.0000  0.0000  0.0000
  182MPD2  HA25 2718   1.201   0.399   2.953  0.0000  0.0000  0.0000
  182MPD2  HN26 2719   1.104   0.331   3.320  0.0000  0.0000  0.0000
  182MPD2  HN27 2720   1.230   0.794   3.405  0.0000  0.0000  0.0000
  182MPD2  NB28 2721   1.148   0.324   3.229  0.0000  0.0000  0.0000
  182MPD2  NB29 2722   1.268   0.792   3.311  0.0000  0.0000  0.0000
  183MPD1   CA1 2723   2.612   0.627   3.036  0.0000  0.0000  0.0000
  183MPD1   CA2 2724   2.479   0.682   3.045  0.0000  0.0000  0.0000
  183MPD1   CA3 2725   2.454   0.827   3.048  0.0000  0.0000  0.0000
  183MPD1   CA4 2726   2.571   0.908   3.055  0.0000  0.0000  0.0000
  183MPD1   CA5 2727   2.696   0.859   3.059  0.0000  0.0000  0.0000
  183MPD1   CA6 2728   2.719   0.719   3.044  0.0000  0.0000  0.0000
  183MPD1  HA10 2729   2.824   0.692   3.053  0.0000  0.0000  0.0000
  183MPD1   HA7 2730   2.393   0.616   3.038  0.0000  0.0000  0.0000
  183MPD1   HA8 2731   2.552   1.014   3.073  0.0000  0.0000  0.0000
  183MPD1   HA9 2732   2.778   0.929   3.071  0.0000  0.0000  0.0000
  183MPD1  HN11 2733   2.678   0.454   2.951  0.0000  0.0000  0.0000
  183MPD1  HN12 2734   2.298   0.970   3.032  0.0000  0.0000  0.0000
  183MPD1  HN13 2735   2.235   0.819   3.045  0.0000  0.0000  0.0000
  183MPD1  NB14 2736   2.633   0.489   3.035  0.0000  0.0000  0.0000
  183MPD1  NH15 2737   2.320   0.873   3.053  0.0000  0.0000  0.0000
  184MPD1   CA1 2738   3.753   1.734   5.687  0.0000  0.0000  0.0000
  184MPD1   CA2 2739   3.726   1.825   5.793  0.0000  0.0000  0.0000
  184MPD1   CA3 2740   3.827   1.905   5.862  0.0000  0.0000  0.0000
  184MPD1   CA4 2741   3.957   1.888   5.818  0.0000  0.0000  0.0000
  184MPD1   CA5 2742   3.981   1.803   5.711  0.0000  0.0000  0.0000
  184MPD1   CA6 2743   3.879   1.735   5.640  0.0000  0.0000  0.0000
  184MPD1  HA10 2744   3.909   1.673   5.556  0.0000  0.0000  0.0000
  184MPD1   HA7 2745   3.625   1.852   5.823  0.0000  0.0000  0.0000
  184MPD1   HA8 2746   4.037   1.945   5.863  0.0000  0.0000  0.0000
  184MPD1   HA9 2747   4.084   1.797   5.678  0.0000  0.0000  0.0000
  184MPD1  HN11 2748   3.616   1.576   5.671  0.0000  0.0000  0.0000
  184MPD1  HN12 2749   3.875   2.061   5.973  0.0000  0.0000  0.0000
  184MPD1  HN13 2750   3.715   2.006   6.009  0.0000  0.0000  0.0000
  184MPD1  NB14 2751   3.653   1.657   5.621  0.0000  0.0000  0.0000
  184MPD1  NH15 2752   3.806   1.986   5.970  0.0000  0.0000  0.0000
  185MPD2  CA16 2753   1.473   0.283   3.812  0.0000  0.0000  0.0000
  185MPD2  CA17 2754   1.397   0.169   3.801  0.0000  0.0000  0.0000
  185MPD2  CA18 2755   1.381   0.089   3.918  0.0000  0.0000  0.0000
  185MPD2  CA19 2756   1.451   0.118   4.031  0.0000  0.0000  0.0000
  185MPD2  CA20 2757   1.531   0.227   4.037  0.0000  0.0000  0.0000
  185MPD2  CA21 2758   1.540   0.314   3.931  0.0000  0.0000  0.0000
  185MPD2  HA22 2759   1.343   0.142   3.710  0.0000  0.0000  0.0000
  185MPD2  HA23 2760   1.441   0.052   4.116  0.0000  0.0000  0.0000
  185MPD2  HA24 2761   1.598   0.247   4.120  0.0000  0.0000  0.0000
  185MPD2  HA25 2762   1.610   0.396   3.939  0.0000  0.0000  0.0000
  185MPD2  HN26 2763   1.587   0.428   3.724  0.0000  0.0000  0.0000
  185MPD2  HN27 2764   1.240  -0.027   3.991  0.0000  0.0000  0.0000
  185MPD2  NB28 2765   1.517   0.359   3.700  0.0000  0.0000  0.0000
  185MPD2  NB29 2766   1.304  -0.030   3.913  0.0000  0.0000  0.0000
  186MPD2  CA16 2767   3.427   0.640   2.568  0.0000  0.0000  0.0000
  186MPD2  CA17 2768   3.304   0.697   2.599  0.0000  0.0000  0.0000
  186MPD2  CA18 2769   3.201   0.692   2.506  0.0000  0.0000  0.0000
  186MPD2  CA19 2770   3.218   0.631   2.386  0.0000  0.0000  0.0000
  186MPD2  CA20 2771   3.345   0.604   2.341  0.0000  0.0000  0.0000
  186MPD2  CA21 2772   3.446   0.602   2.433  0.0000  0.0000  0.0000
  186MPD2  HA22 2773   3.277   0.733   2.698  0.0000  0.0000  0.0000
  186MPD2  HA23 2774   3.134   0.621   2.317  0.0000  0.0000  0.0000
  186MPD2  HA24 2775   3.364   0.562   2.242  0.0000  0.0000  0.0000
  186MPD2  HA25 2776   3.539   0.566   2.390  0.0000  0.0000  0.0000
  186MPD2  HN26 2777   3.598   0.691   2.674  0.0000  0.0000  0.0000
  186MPD2  HN27 2778   3.084   0.836   2.612  0.0000  0.0000  0.0000
  186MPD2  NB28 2779   3.534   0.615   2.657  0.0000  0.0000  0.0000
  186MPD2  NB29 2780   3.077   0.757   2.549  0.0000  0.0000  0.0000
  187MPD1   CA1 2781   1.163   1.385   4.470  0.0000  0.0000  0.0000
  187MPD1   CA2 2782   1.088   1.497   4.511  0.0000  0.0000  0.0000
  187MPD1   CA3 2783   1.104   1.624   4.448  0.0000  0.0000  0.0000
  187MPD1   CA4 2784   1.194   1.634   4.343  0.0000  0.0000  0.0000
  187MPD1   CA5 2785   1.268   1.518   4.307  0.0000  0.0000  0.0000
  187MPD1   CA6 2786   1.254   1.395   4.367  0.0000  0.0000  0.0000
  187MPD1  HA10 2787   1.304   1.304   4.335  0.0000  0.0000  0.0000
  187MPD1   HA7 2788   1.021   1.477   4.594  0.0000  0.0000  0.0000
  187MPD1   HA8 2789   1.205   1.720   4.277  0.0000  0.0000  0.0000
  187MPD1   HA9 2790   1.342   1.526   4.229  0.0000  0.0000  0.0000
  187MPD1  HN11 2791   1.028   1.250   4.518  0.0000  0.0000  0.0000
  187MPD1  HN12 2792   0.988   1.784   4.410  0.0000  0.0000  0.0000
  187MPD1  HN13 2793   0.942   1.692   4.543  0.0000  0.0000  0.0000
  187MPD1  NB14 2794   1.129   1.256   4.528  0.0000  0.0000  0.0000
  187MPD1  NH15 2795   1.019   1.727   4.487  0.0000  0.0000  0.0000
  188MPD2  CA16 2796   1.200   2.516   5.078  0.0000  0.0000  0.0000
  188MPD2  CA17 2797   1.320   2.450   5.103  0.0000  0.0000  0.0000
  188MPD2  CA18 2798   1.445   2.506   5.109  0.0000  0.0000  0.0000
  188MPD2  CA19 2799   1.457   2.640   5.071  0.0000  0.0000  0.0000
  188MPD2  CA20 2800   1.343   2.711   5.042  0.0000  0.0000  0.0000
  188MPD2  CA21 2801   1.215   2.656   5.043  0.0000  0.0000  0.0000
  188MPD2  HA22 2802   1.312   2.348   5.140  0.0000  0.0000  0.0000
  188MPD2  HA23 2803   1.553   2.691   5.072  0.0000  0.0000  0.0000
  188MPD2  HA24 2804   1.333   2.817   5.025  0.0000  0.0000  0.0000
  188MPD2  HA25 2805   1.127   2.716   5.023  0.0000  0.0000  0.0000
  188MPD2  HN26 2806   1.102   2.342   5.107  0.0000  0.0000  0.0000
  188MPD2  HN27 2807   1.559   2.396   5.236  0.0000  0.0000  0.0000
  188MPD2  NB28 2808   1.087   2.440   5.085  0.0000  0.0000  0.0000
  188MPD2  NB29 2809   1.556   2.433   5.142  0.0000  0.0000  0.0000
  189MPD2  CA16 2810   4.128  -0.005   2.770  0.0000  0.0000  0.0000
  189MPD2  CA17 2811   4.048  -0.086   2.688  0.0000  0.0000  0.0000
  189MPD2  CA18 2812   3.951  -0.026   2.606  0.0000  0.0000  0.0000
  189MPD2  CA19 2813   3.935   0.113   2.608  0.0000  0.0000  0.0000
  189MPD2  CA20 2814   4.022   0.189   2.682  0.0000  0.0000  0.0000
  189MPD2  CA21 2815   4.119   0.131   2.766  0.0000  0.0000  0.0000
  189MPD2  HA22 2816   4.056  -0.194   2.694  0.0000  0.0000  0.0000
  189MPD2  HA23 2817   3.850   0.154   2.554  0.0000  0.0000  0.0000
  189MPD2  HA24 2818   4.012   0.297   2.680  0.0000  0.0000  0.0000
  189MPD2  HA25 2819   4.190   0.193   2.821  0.0000  0.0000  0.0000
  189MPD2  HN26 2820   4.254  -0.158   2.817  0.0000  0.0000  0.0000
  189MPD2  HN27 2821   3.764  -0.085   2.554  0.0000  0.0000  0.0000
  189MPD2  NB28 2822   4.222  -0.069   2.854  0.0000  0.0000  0.0000
  189MPD2  NB29 2823   3.860  -0.100   2.527  0.0000  0.0000  0.0000
  190MPD2  CA16 2824   3.769  -1.036   6.171  0.0000  0.0000  0.0000
  190MPD2  CA17 2825   3.836  -0.981   6.057  0.0000  0.0000  0.0000
  190MPD2  CA18 2826   3.835  -1.031   5.923  0.0000  0.0000  0.0000
  190MPD2  CA19 2827   3.758  -1.147   5.909  0.0000  0.0000  0.0000
  190MPD2  CA20 2828   3.681  -1.194   6.014  0.0000  0.0000  0.0000
  190MPD2  CA21 2829   3.700  -1.153   6.150  0.0000  0.0000  0.0000
  190MPD2  HA22 2830   3.882  -0.884   6.072  0.0000  0.0000  0.0000
  190MPD2  HA23 2831   3.739  -1.189   5.811  0.0000  0.0000  0.0000
  190MPD2  HA24 2832   3.612  -1.274   5.992  0.0000  0.0000  0.0000
  190MPD2  HA25 2833   3.646  -1.196   6.234  0.0000  0.0000  0.0000
  190MPD2  HN26 2834   3.698  -1.036   6.355  0.0000  0.0000  0.0000
  190MPD2  HN27 2835   3.960  -1.049   5.767  0.0000  0.0000  0.0000
  190MPD2  NB28 2836   3.778  -0.997   6.307  0.0000  0.0000  0.0000
  190MPD2  NB29 2837   3.906  -0.979   5.815  0.0000  0.0000  0.0000
  191MPD2  CA16 2838   4.783  -0.181   3.786  0.0000  0.0000  0.0000
  191MPD2  CA17 2839   4.747  -0.133   3.657  0.0000  0.0000  0.0000
  191MPD2  CA18 2840   4.668  -0.209   3.569  0.0000  0.0000  0.0000
  191MPD2  CA19 2841   4.637  -0.340   3.608  0.0000  0.0000  0.0000
  191MPD2  CA20 2842   4.674  -0.391   3.733  0.0000  0.0000  0.0000
  191MPD2  CA21 2843   4.751  -0.319   3.818  0.0000  0.0000  0.0000
  191MPD2  HA22 2844   4.779  -0.033   3.627  0.0000  0.0000  0.0000
  191MPD2  HA23 2845   4.582  -0.406   3.542  0.0000  0.0000  0.0000
  191MPD2  HA24 2846   4.651  -0.493   3.763  0.0000  0.0000  0.0000
  191MPD2  HA25 2847   4.779  -0.360   3.914  0.0000  0.0000  0.0000
  191MPD2  HN26 2848   4.935  -0.051   3.831  0.0000  0.0000  0.0000
  191MPD2  HN27 2849   4.737  -0.211   3.372  0.0000  0.0000  0.0000
  191MPD2  NB28 2850   4.862  -0.108   3.873  0.0000  0.0000  0.0000
  191MPD2  NB29 2851   4.660  -0.177   3.428  0.0000  0.0000  0.0000
  192MPD2  CA16 2852   4.557  -0.917   3.250  0.0000  0.0000  0.0000
  192MPD2  CA17 2853   4.576  -1.043   3.313  0.0000  0.0000  0.0000
  192MPD2  CA18 2854   4.509  -1.162   3.270  0.0000  0.0000  0.0000
  192MPD2  CA19 2855   4.422  -1.150   3.159  0.0000  0.0000  0.0000
  192MPD2  CA20 2856   4.402  -1.023   3.099  0.0000  0.0000  0.0000
  192MPD2  CA21 2857   4.462  -0.906   3.149  0.0000  0.0000  0.0000
  192MPD2  HA22 2858   4.640  -1.048   3.400  0.0000  0.0000  0.0000
  192MPD2  HA23 2859   4.362  -1.235   3.128  0.0000  0.0000  0.0000
  192MPD2  HA24 2860   4.337  -1.015   3.012  0.0000  0.0000  0.0000
  192MPD2  HA25 2861   4.451  -0.809   3.102  0.0000  0.0000  0.0000
  192MPD2  HN26 2862   4.711  -0.789   3.280  0.0000  0.0000  0.0000
  192MPD2  HN27 2863   4.491  -1.363   3.305  0.0000  0.0000  0.0000
  192MPD2  NB28 2864   4.613  -0.798   3.303  0.0000  0.0000  0.0000
  192MPD2  NB29 2865   4.499  -1.275   3.354  0.0000  0.0000  0.0000
  193MPD1   CA1 2866   0.532   1.450   4.859  0.0000  0.0000  0.0000
  193MPD1   CA2 2867   0.568   1.316   4.874  0.0000  0.0000  0.0000
  193MPD1   CA3 2868   0.476   1.213   4.903  0.0000  0.0000  0.0000
  193MPD1   CA4 2869   0.337   1.242   4.923  0.0000  0.0000  0.0000
  193MPD1   CA5 2870   0.299   1.378   4.896  0.0000  0.0000  0.0000
  193MPD1   CA6 2871   0.392   1.479   4.877  0.0000  0.0000  0.0000
  193MPD1  HA10 2872   0.356   1.581   4.867  0.0000  0.0000  0.0000
  193MPD1   HA7 2873   0.671   1.286   4.857  0.0000  0.0000  0.0000
  193MPD1   HA8 2874   0.265   1.164   4.944  0.0000  0.0000  0.0000
  193MPD1   HA9 2875   0.193   1.403   4.898  0.0000  0.0000  0.0000
  193MPD1  HN11 2876   0.575   1.647   4.826  0.0000  0.0000  0.0000
  193MPD1  HN12 2877   0.455   1.040   5.002  0.0000  0.0000  0.0000
  193MPD1  HN13 2878   0.611   1.054   4.920  0.0000  0.0000  0.0000
  193MPD1  NB14 2879   0.621   1.557   4.828  0.0000  0.0000  0.0000
  193MPD1  NH15 2880   0.518   1.087   4.939  0.0000  0.0000  0.0000
  194MPD2  CA16 2881   1.070   0.203   3.822  0.0000  0.0000  0.0000
  194MPD2  CA17 2882   1.136   0.325   3.842  0.0000  0.0000  0.0000
  194MPD2  CA18 2883   1.137   0.396   3.966  0.0000  0.0000  0.0000
  194MPD2  CA19 2884   1.063   0.340   4.070  0.0000  0.0000  0.0000
  194MPD2  CA20 2885   0.998   0.223   4.055  0.0000  0.0000  0.0000
  194MPD2  CA21 2886   0.992   0.157   3.930  0.0000  0.0000  0.0000
  194MPD2  HA22 2887   1.184   0.377   3.759  0.0000  0.0000  0.0000
  194MPD2  HA23 2888   1.050   0.390   4.166  0.0000  0.0000  0.0000
  194MPD2  HA24 2889   0.947   0.173   4.137  0.0000  0.0000  0.0000
  194MPD2  HA25 2890   0.940   0.062   3.917  0.0000  0.0000  0.0000
  194MPD2  HN26 2891   1.097   0.213   3.624  0.0000  0.0000  0.0000
  194MPD2  HN27 2892   1.325   0.487   3.961  0.0000  0.0000  0.0000
  194MPD2  NB28 2893   1.075   0.145   3.696  0.0000  0.0000  0.0000
  194MPD2  NB29 2894   1.227   0.509   3.976  0.0000  0.0000  0.0000
  195MPD1   CA1 2895   2.701   1.442   4.481  0.0000  0.0000  0.0000
  195MPD1   CA2 2896   2.790   1.547   4.509  0.0000  0.0000  0.0000
  195MPD1   CA3 2897   2.866   1.611   4.412  0.0000  0.0000  0.0000
  195MPD1   CA4 2898   2.866   1.556   4.282  0.0000  0.0000  0.0000
  195MPD1   CA5 2899   2.766   1.461   4.252  0.0000  0.0000  0.0000
  195MPD1   CA6 2900   2.683   1.410   4.350  0.0000  0.0000  0.0000
  195MPD1  HA10 2901   2.609   1.334   4.326  0.0000  0.0000  0.0000
  195MPD1   HA7 2902   2.802   1.565   4.615  0.0000  0.0000  0.0000
  195MPD1   HA8 2903   2.938   1.591   4.208  0.0000  0.0000  0.0000
  195MPD1   HA9 2904   2.752   1.431   4.149  0.0000  0.0000  0.0000
  195MPD1  HN11 2905   2.546   1.336   4.584  0.0000  0.0000  0.0000
  195MPD1  HN12 2906   2.975   1.750   4.537  0.0000  0.0000  0.0000
  195MPD1  HN13 2907   2.957   1.780   4.364  0.0000  0.0000  0.0000
  195MPD1  NB14 2908   2.646   1.348   4.576  0.0000  0.0000  0.0000
  195MPD1  NH15 2909   2.934   1.728   4.447  0.0000  0.0000  0.0000
  196MPD2  CA16 2910   1.303   0.230   4.681  0.0000  0.0000  0.0000
  196MPD2  CA17 2911   1.250   0.353   4.699  0.0000  0.0000  0.0000
  196MPD2  CA18 2912   1.324   0.470   4.740  0.0000  0.0000  0.0000
  196MPD2  CA19 2913   1.455   0.450   4.774  0.0000  0.0000  0.0000
  196MPD2  CA20 2914   1.508   0.322   4.766  0.0000  0.0000  0.0000
  196MPD2  CA21 2915   1.438   0.214   4.709  0.0000  0.0000  0.0000
  196MPD2  HA22 2916   1.153   0.384   4.661  0.0000  0.0000  0.0000
  196MPD2  HA23 2917   1.517   0.532   4.810  0.0000  0.0000  0.0000
  196MPD2  HA24 2918   1.613   0.314   4.795  0.0000  0.0000  0.0000
  196MPD2  HA25 2919   1.490   0.119   4.698  0.0000  0.0000  0.0000
  196MPD2  HN26 2920   1.209   0.122   4.527  0.0000  0.0000  0.0000
  196MPD2  HN27 2921   1.156   0.584   4.708  0.0000  0.0000  0.0000
  196MPD2  NB28 2922   1.229   0.120   4.627  0.0000  0.0000  0.0000
  196MPD2  NB29 2923   1.250   0.591   4.747  0.0000  0.0000  0.0000
  197MPD1   CA1 2924   1.744  -0.553   5.453  0.0000  0.0000  0.0000
  197MPD1   CA2 2925   1.604  -0.575   5.462  0.0000  0.0000  0.0000
  197MPD1   CA3 2926   1.550  -0.703   5.450  0.0000  0.0000  0.0000
  197MPD1   CA4 2927   1.641  -0.815   5.455  0.0000  0.0000  0.0000
  197MPD1   CA5 2928   1.776  -0.795   5.450  0.0000  0.0000  0.0000
  197MPD1   CA6 2929   1.826  -0.666   5.450  0.0000  0.0000  0.0000
  197MPD1  HA10 2930   1.934  -0.650   5.451  0.0000  0.0000  0.0000
  197MPD1   HA7 2931   1.540  -0.487   5.468  0.0000  0.0000  0.0000
  197MPD1   HA8 2932   1.618  -0.921   5.462  0.0000  0.0000  0.0000
  197MPD1   HA9 2933   1.843  -0.881   5.447  0.0000  0.0000  0.0000
  197MPD1  HN11 2934   1.714  -0.355   5.468  0.0000  0.0000  0.0000
  197MPD1  HN12 2935   1.389  -0.814   5.505  0.0000  0.0000  0.0000
  197MPD1  HN13 2936   1.353  -0.651   5.468  0.0000  0.0000  0.0000
  197MPD1  NB14 2937   1.792  -0.419   5.468  0.0000  0.0000  0.0000
  197MPD1  NH15 2938   1.414  -0.731   5.453  0.0000  0.0000  0.0000
  198MPD2  CA16 2939   1.865   0.125   3.753  0.0000  0.0000  0.0000
  198MPD2  CA17 2940   1.888   0.169   3.879  0.0000  0.0000  0.0000
  198MPD2  CA18 2941   1.964   0.278   3.904  0.0000  0.0000  0.0000
  198MPD2  CA19 2942   2.013   0.353   3.804  0.0000  0.0000  0.0000
  198MPD2  CA20 2943   1.990   0.313   3.682  0.0000  0.0000  0.0000
  198MPD2  CA21 2944   1.906   0.207   3.651  0.0000  0.0000  0.0000
  198MPD2  HA22 2945   1.845   0.117   3.964  0.0000  0.0000  0.0000
  198MPD2  HA23 2946   2.066   0.440   3.839  0.0000  0.0000  0.0000
  198MPD2  HA24 2947   2.032   0.376   3.604  0.0000  0.0000  0.0000
  198MPD2  HA25 2948   1.877   0.182   3.549  0.0000  0.0000  0.0000
  198MPD2  HN26 2949   1.734  -0.022   3.814  0.0000  0.0000  0.0000
  198MPD2  HN27 2950   2.100   0.323   4.056  0.0000  0.0000  0.0000
  198MPD2  NB28 2951   1.775   0.019   3.730  0.0000  0.0000  0.0000
  198MPD2  NB29 2952   2.001   0.316   4.037  0.0000  0.0000  0.0000
  199MPD2  CA16 2953   3.988   0.611   5.281  0.0000  0.0000  0.0000
  199MPD2  CA17 2954   3.868   0.535   5.297  0.0000  0.0000  0.0000
  199MPD2  CA18 2955   3.845   0.405   5.246  0.0000  0.0000  0.0000
  199MPD2  CA19 2956   3.948   0.344   5.176  0.0000  0.0000  0.0000
  199MPD2  CA20 2957   4.071   0.415   5.162  0.0000  0.0000  0.0000
  199MPD2  CA21 2958   4.087   0.541   5.213  0.0000  0.0000  0.0000
  199MPD2  HA22 2959   3.780   0.573   5.347  0.0000  0.0000  0.0000
  199MPD2  HA23 2960   3.925   0.248   5.131  0.0000  0.0000  0.0000
  199MPD2  HA24 2961   4.151   0.366   5.109  0.0000  0.0000  0.0000
  199MPD2  HA25 2962   4.184   0.587   5.198  0.0000  0.0000  0.0000
  199MPD2  HN26 2963   4.103   0.782   5.332  0.0000  0.0000  0.0000
  199MPD2  HN27 2964   3.663   0.377   5.349  0.0000  0.0000  0.0000
  199MPD2  NB28 2965   4.008   0.745   5.334  0.0000  0.0000  0.0000
  199MPD2  NB29 2966   3.721   0.339   5.275  0.0000  0.0000  0.0000
  200MPD2  CA16 2967   3.144   0.113   2.963  0.0000  0.0000  0.0000
  200MPD2  CA17 2968   3.209  -0.013   2.937  0.0000  0.0000  0.0000
  200MPD2  CA18 2969   3.348  -0.008   2.908  0.0000  0.0000  0.0000
  200MPD2  CA19 2970   3.416   0.115   2.919  0.0000  0.0000  0.0000
  200MPD2  CA20 2971   3.351   0.236   2.946  0.0000  0.0000  0.0000
  200MPD2  CA21 2972   3.218   0.235   2.968  0.0000  0.0000  0.0000
  200MPD2  HA22 2973   3.155  -0.107   2.936  0.0000  0.0000  0.0000
  200MPD2  HA23 2974   3.523   0.119   2.901  0.0000  0.0000  0.0000
  200MPD2  HA24 2975   3.405   0.330   2.946  0.0000  0.0000  0.0000
  200MPD2  HA25 2976   3.164   0.328   2.984  0.0000  0.0000  0.0000
  200MPD2  HN26 2977   2.970   0.222   3.003  0.0000  0.0000  0.0000
  200MPD2  HN27 2978   3.404  -0.208   2.938  0.0000  0.0000  0.0000
  200MPD2  NB28 2979   3.004   0.127   2.998  0.0000  0.0000  0.0000
  200MPD2  NB29 2980   3.429  -0.128   2.880  0.0000  0.0000  0.0000
  201MPD1   CA1 2981   2.431   1.735   4.290  0.0000  0.0000  0.0000
  201MPD1   CA2 2982   2.496   1.743   4.418  0.0000  0.0000  0.0000
  201MPD1   CA3 2983   2.469   1.846   4.509  0.0000  0.0000  0.0000
  201MPD1   CA4 2984   2.383   1.949   4.476  0.0000  0.0000  0.0000
  201MPD1   CA5 2985   2.313   1.946   4.356  0.0000  0.0000  0.0000
  201MPD1   CA6 2986   2.328   1.839   4.267  0.0000  0.0000  0.0000
  201MPD1  HA10 2987   2.263   1.841   4.180  0.0000  0.0000  0.0000
  201MPD1   HA7 2988   2.557   1.655   4.436  0.0000  0.0000  0.0000
  201MPD1   HA8 2989   2.360   2.020   4.555  0.0000  0.0000  0.0000
  201MPD1   HA9 2990   2.235   2.015   4.324  0.0000  0.0000  0.0000
  201MPD1  HN11 2991   2.542   1.581   4.211  0.0000  0.0000  0.0000
  201MPD1  HN12 2992   2.563   1.758   4.668  0.0000  0.0000  0.0000
  201MPD1  HN13 2993   2.482   1.898   4.706  0.0000  0.0000  0.0000
  201MPD1  NB14 2994   2.453   1.627   4.194  0.0000  0.0000  0.0000
  201MPD1  NH15 2995   2.539   1.851   4.637  0.0000  0.0000  0.0000
  202MPD2  CA16 2996   4.228  -1.229   3.635  0.0000  0.0000  0.0000
  202MPD2  CA17 2997   4.160  -1.336   3.566  0.0000  0.0000  0.0000
  202MPD2  CA18 2998   4.139  -1.462   3.629  0.0000  0.0000  0.0000
  202MPD2  CA19 2999   4.186  -1.482   3.762  0.0000  0.0000  0.0000
  202MPD2  CA20 3000   4.255  -1.377   3.829  0.0000  0.0000  0.0000
  202MPD2  CA21 3001   4.271  -1.253   3.768  0.0000  0.0000  0.0000
  202MPD2  HA22 3002   4.118  -1.316   3.468  0.0000  0.0000  0.0000
  202MPD2  HA23 3003   4.154  -1.563   3.826  0.0000  0.0000  0.0000
  202MPD2  HA24 3004   4.295  -1.404   3.926  0.0000  0.0000  0.0000
  202MPD2  HA25 3005   4.333  -1.177   3.815  0.0000  0.0000  0.0000
  202MPD2  HN26 3006   4.360  -1.081   3.575  0.0000  0.0000  0.0000
  202MPD2  HN27 3007   3.999  -1.607   3.639  0.0000  0.0000  0.0000
  202MPD2  NB28 3008   4.263  -1.109   3.567  0.0000  0.0000  0.0000
  202MPD2  NB29 3009   4.051  -1.553   3.570  0.0000  0.0000  0.0000
  203MPD1   CA1 3010   1.764   1.135   4.150  0.0000  0.0000  0.0000
  203MPD1   CA2 3011   1.792   1.257   4.075  0.0000  0.0000  0.0000
  203MPD1   CA3 3012   1.725   1.375   4.099  0.0000  0.0000  0.0000
  203MPD1   CA4 3013   1.623   1.374   4.191  0.0000  0.0000  0.0000
  203MPD1   CA5 3014   1.595   1.259   4.269  0.0000  0.0000  0.0000
  203MPD1   CA6 3015   1.666   1.142   4.254  0.0000  0.0000  0.0000
  203MPD1  HA10 3016   1.649   1.059   4.323  0.0000  0.0000  0.0000
  203MPD1   HA7 3017   1.869   1.261   3.999  0.0000  0.0000  0.0000
  203MPD1   HA8 3018   1.555   1.459   4.200  0.0000  0.0000  0.0000
  203MPD1   HA9 3019   1.516   1.264   4.343  0.0000  0.0000  0.0000
  203MPD1  HN11 3020   1.917   1.020   4.062  0.0000  0.0000  0.0000
  203MPD1  HN12 3021   1.821   1.513   3.977  0.0000  0.0000  0.0000
  203MPD1  HN13 3022   1.683   1.574   4.055  0.0000  0.0000  0.0000
  203MPD1  NB14 3023   1.838   1.014   4.124  0.0000  0.0000  0.0000
  203MPD1  NH15 3024   1.737   1.493   4.029  0.0000  0.0000  0.0000
  204MPD2  CA16 3025   3.231   0.885   5.632  0.0000  0.0000  0.0000
  204MPD2  CA17 3026   3.243   1.013   5.586  0.0000  0.0000  0.0000
  204MPD2  CA18 3027   3.337   1.104   5.642  0.0000  0.0000  0.0000
  204MPD2  CA19 3028   3.433   1.050   5.732  0.0000  0.0000  0.0000
  204MPD2  CA20 3029   3.428   0.919   5.771  0.0000  0.0000  0.0000
  204MPD2  CA21 3030   3.324   0.834   5.725  0.0000  0.0000  0.0000
  204MPD2  HA22 3031   3.177   1.042   5.505  0.0000  0.0000  0.0000
  204MPD2  HA23 3032   3.504   1.125   5.768  0.0000  0.0000  0.0000
  204MPD2  HA24 3033   3.512   0.885   5.830  0.0000  0.0000  0.0000
  204MPD2  HA25 3034   3.323   0.734   5.767  0.0000  0.0000  0.0000
  204MPD2  HN26 3035   3.082   0.842   5.506  0.0000  0.0000  0.0000
  204MPD2  HN27 3036   3.448   1.282   5.608  0.0000  0.0000  0.0000
  204MPD2  NB28 3037   3.128   0.799   5.585  0.0000  0.0000  0.0000
  204MPD2  NB29 3038   3.356   1.240   5.601  0.0000  0.0000  0.0000
  205MPD2  CA16 3039   2.625   1.036   4.126  0.0000  0.0000  0.0000
  205MPD2  CA17 3040   2.530   0.935   4.109  0.0000  0.0000  0.0000
  205MPD2  CA18 3041   2.443   0.905   4.219  0.0000  0.0000  0.0000
  205MPD2  CA19 3042   2.457   0.968   4.338  0.0000  0.0000  0.0000
  205MPD2  CA20 3043   2.562   1.058   4.355  0.0000  0.0000  0.0000
  205MPD2  CA21 3044   2.647   1.090   4.252  0.0000  0.0000  0.0000
  205MPD2  HA22 3045   2.506   0.882   4.017  0.0000  0.0000  0.0000
  205MPD2  HA23 3046   2.387   0.952   4.419  0.0000  0.0000  0.0000
  205MPD2  HA24 3047   2.581   1.100   4.453  0.0000  0.0000  0.0000
  205MPD2  HA25 3048   2.728   1.159   4.272  0.0000  0.0000  0.0000
  205MPD2  HN26 3049   2.794   1.038   3.992  0.0000  0.0000  0.0000
  205MPD2  HN27 3050   2.240   0.854   4.251  0.0000  0.0000  0.0000
  205MPD2  NB28 3051   2.706   1.083   4.015  0.0000  0.0000  0.0000
  205MPD2  NB29 3052   2.322   0.833   4.195  0.0000  0.0000  0.0000
  206MPD2  CA16 3053   4.134  -2.311   5.280  0.0000  0.0000  0.0000
  206MPD2  CA17 3054   4.258  -2.318   5.345  0.0000  0.0000  0.0000
  206MPD2  CA18 3055   4.376  -2.321   5.269  0.0000  0.0000  0.0000
  206MPD2  CA19 3056   4.370  -2.326   5.135  0.0000  0.0000  0.0000
  206MPD2  CA20 3057   4.253  -2.322   5.065  0.0000  0.0000  0.0000
  206MPD2  CA21 3058   4.131  -2.306   5.135  0.0000  0.0000  0.0000
  206MPD2  HA22 3059   4.262  -2.322   5.453  0.0000  0.0000  0.0000
  206MPD2  HA23 3060   4.458  -2.316   5.071  0.0000  0.0000  0.0000
  206MPD2  HA24 3061   4.261  -2.310   4.957  0.0000  0.0000  0.0000
  206MPD2  HA25 3062   4.038  -2.301   5.080  0.0000  0.0000  0.0000
  206MPD2  HN26 3063   3.954  -2.384   5.338  0.0000  0.0000  0.0000
  206MPD2  HN27 3064   4.508  -2.337   5.433  0.0000  0.0000  0.0000
  206MPD2  NB28 3065   4.019  -2.309   5.359  0.0000  0.0000  0.0000
  206MPD2  NB29 3066   4.502  -2.308   5.336  0.0000  0.0000  0.0000
  207MPD2  CA16 3067   1.722  -1.615   4.864  0.0000  0.0000  0.0000
  207MPD2  CA17 3068   1.667  -1.734   4.806  0.0000  0.0000  0.0000
  207MPD2  CA18 3069   1.531  -1.750   4.789  0.0000  0.0000  0.0000
  207MPD2  CA19 3070   1.449  -1.637   4.812  0.0000  0.0000  0.0000
  207MPD2  CA20 3071   1.498  -1.523   4.877  0.0000  0.0000  0.0000
  207MPD2  CA21 3072   1.633  -1.514   4.909  0.0000  0.0000  0.0000
  207MPD2  HA22 3073   1.731  -1.812   4.765  0.0000  0.0000  0.0000
  207MPD2  HA23 3074   1.340  -1.638   4.816  0.0000  0.0000  0.0000
  207MPD2  HA24 3075   1.426  -1.447   4.906  0.0000  0.0000  0.0000
  207MPD2  HA25 3076   1.669  -1.428   4.966  0.0000  0.0000  0.0000
  207MPD2  HN26 3077   1.906  -1.679   4.932  0.0000  0.0000  0.0000
  207MPD2  HN27 3078   1.545  -1.958   4.790  0.0000  0.0000  0.0000
  207MPD2  NB28 3079   1.864  -1.601   4.885  0.0000  0.0000  0.0000
  207MPD2  NB29 3080   1.479  -1.883   4.772  0.0000  0.0000  0.0000
  208MPD2  CA16 3081   3.590  -0.044   4.323  0.0000  0.0000  0.0000
  208MPD2  CA17 3082   3.624   0.092   4.335  0.0000  0.0000  0.0000
  208MPD2  CA18 3083   3.570   0.165   4.442  0.0000  0.0000  0.0000
  208MPD2  CA19 3084   3.492   0.100   4.537  0.0000  0.0000  0.0000
  208MPD2  CA20 3085   3.456  -0.031   4.515  0.0000  0.0000  0.0000
  208MPD2  CA21 3086   3.505  -0.109   4.411  0.0000  0.0000  0.0000
  208MPD2  HA22 3087   3.695   0.145   4.272  0.0000  0.0000  0.0000
  208MPD2  HA23 3088   3.450   0.149   4.625  0.0000  0.0000  0.0000
  208MPD2  HA24 3089   3.400  -0.083   4.592  0.0000  0.0000  0.0000
  208MPD2  HA25 3090   3.494  -0.217   4.415  0.0000  0.0000  0.0000
  208MPD2  HN26 3091   3.605  -0.050   4.125  0.0000  0.0000  0.0000
  208MPD2  HN27 3092   3.707   0.312   4.407  0.0000  0.0000  0.0000
  208MPD2  NB28 3093   3.634  -0.104   4.206  0.0000  0.0000  0.0000
  208MPD2  NB29 3094   3.611   0.299   4.436  0.0000  0.0000  0.0000
  209MPD2  CA16 3095   4.797  -1.926   4.102  0.0000  0.0000  0.0000
  209MPD2  CA17 3096   4.884  -2.025   4.058  0.0000  0.0000  0.0000
  209MPD2  CA18 3097   4.943  -2.002   3.934  0.0000  0.0000  0.0000
  209MPD2  CA19 3098   4.903  -1.892   3.856  0.0000  0.0000  0.0000
  209MPD2  CA20 3099   4.815  -1.793   3.906  0.0000  0.0000  0.0000
  209MPD2  CA21 3100   4.759  -1.814   4.026  0.0000  0.0000  0.0000
  209MPD2  HA22 3101   4.921  -2.106   4.120  0.0000  0.0000  0.0000
  209MPD2  HA23 3102   4.933  -1.877   3.753  0.0000  0.0000  0.0000
  209MPD2  HA24 3103   4.787  -1.708   3.845  0.0000  0.0000  0.0000
  209MPD2  HA25 3104   4.683  -1.747   4.064  0.0000  0.0000  0.0000
  209MPD2  HN26 3105   4.718  -1.841   4.282  0.0000  0.0000  0.0000
  209MPD2  HN27 3106   5.110  -2.048   3.827  0.0000  0.0000  0.0000
  209MPD2  NB28 3107   4.744  -1.928   4.236  0.0000  0.0000  0.0000
  209MPD2  NB29 3108   5.031  -2.088   3.877  0.0000  0.0000  0.0000
  210MPD2  CA16 3109   4.287  -1.850   3.979  0.0000  0.0000  0.0000
  210MPD2  CA17 3110   4.408  -1.923   3.980  0.0000  0.0000  0.0000
  210MPD2  CA18 3111   4.433  -2.032   3.900  0.0000  0.0000  0.0000
  210MPD2  CA19 3112   4.332  -2.072   3.816  0.0000  0.0000  0.0000
  210MPD2  CA20 3113   4.215  -1.995   3.801  0.0000  0.0000  0.0000
  210MPD2  CA21 3114   4.188  -1.885   3.888  0.0000  0.0000  0.0000
  210MPD2  HA22 3115   4.486  -1.889   4.047  0.0000  0.0000  0.0000
  210MPD2  HA23 3116   4.343  -2.167   3.764  0.0000  0.0000  0.0000
  210MPD2  HA24 3117   4.148  -2.036   3.727  0.0000  0.0000  0.0000
  210MPD2  HA25 3118   4.099  -1.824   3.890  0.0000  0.0000  0.0000
  210MPD2  HN26 3119   4.345  -1.685   4.094  0.0000  0.0000  0.0000
  210MPD2  HN27 3120   4.628  -2.084   3.944  0.0000  0.0000  0.0000
  210MPD2  NB28 3121   4.264  -1.743   4.074  0.0000  0.0000  0.0000
  210MPD2  NB29 3122   4.540  -2.124   3.915  0.0000  0.0000  0.0000
  211TMC3  CA37 3123   4.675  -2.315   3.952  0.0000  0.0000  0.0000
  211TMC3  CA38 3124   4.687  -2.446   4.004  0.0000  0.0000  0.0000
  211TMC3  CA39 3125   4.813  -2.495   4.027  0.0000  0.0000  0.0000
  211TMC3  CA40 3126   4.921  -2.422   3.988  0.0000  0.0000  0.0000
  211TMC3  CA41 3127   4.911  -2.298   3.926  0.0000  0.0000  0.0000
  211TMC3  CA42 3128   4.783  -2.249   3.899  0.0000  0.0000  0.0000
  211TMC3  CB43 3129   4.539  -2.263   3.930  0.0000  0.0000  0.0000
  211TMC3  CB44 3130   4.832  -2.624   4.103  0.0000  0.0000  0.0000
  211TMC3  CB45 3131   5.034  -2.226   3.886  0.0000  0.0000  0.0000
  211TMC3  HA46 3132   4.600  -2.508   4.022  0.0000  0.0000  0.0000
  211TMC3  HA47 3133   5.020  -2.464   4.002  0.0000  0.0000  0.0000
  211TMC3  HA48 3134   4.768  -2.160   3.838  0.0000  0.0000  0.0000
  211TMC3   O49 3135   4.439  -2.336   3.932  0.0000  0.0000  0.0000
  211TMC3   O50 3136   4.760  -2.722   4.086  0.0000  0.0000  0.0000
  211TMC3   O51 3137   5.131  -2.282   3.838  0.0000  0.0000  0.0000
  212MPD1   CA1 3138   1.696   1.110   5.044  0.0000  0.0000  0.0000
  212MPD1   CA2 3139   1.653   0.991   4.977  0.0000  0.0000  0.0000
  212MPD1   CA3 3140   1.738   0.942   4.878  0.0000  0.0000  0.0000
  212MPD1   CA4 3141   1.866   1.004   4.853  0.0000  0.0000  0.0000
  212MPD1   CA5 3142   1.895   1.116   4.922  0.0000  0.0000  0.0000
  212MPD1   CA6 3143   1.813   1.180   5.013  0.0000  0.0000  0.0000
  212MPD1  HA10 3144   1.848   1.265   5.071  0.0000  0.0000  0.0000
  212MPD1   HA7 3145   1.555   0.950   5.003  0.0000  0.0000  0.0000
  212MPD1   HA8 3146   1.935   0.966   4.779  0.0000  0.0000  0.0000
  212MPD1   HA9 3147   1.990   1.158   4.892  0.0000  0.0000  0.0000
  212MPD1  HN11 3148   1.577   1.114   5.214  0.0000  0.0000  0.0000
  212MPD1  HN12 3149   1.737   0.837   4.710  0.0000  0.0000  0.0000
  212MPD1  HN13 3150   1.611   0.796   4.824  0.0000  0.0000  0.0000
  212MPD1  NB14 3151   1.612   1.175   5.140  0.0000  0.0000  0.0000
  212MPD1  NH15 3152   1.705   0.829   4.805  0.0000  0.0000  0.0000
  213MPD2  CA16 3153   1.915   0.808   3.811  0.0000  0.0000  0.0000
  213MPD2  CA17 3154   1.991   0.920   3.845  0.0000  0.0000  0.0000
  213MPD2  CA18 3155   2.131   0.917   3.852  0.0000  0.0000  0.0000
  213MPD2  CA19 3156   2.194   0.806   3.795  0.0000  0.0000  0.0000
  213MPD2  CA20 3157   2.116   0.699   3.760  0.0000  0.0000  0.0000
  213MPD2  CA21 3158   1.976   0.689   3.771  0.0000  0.0000  0.0000
  213MPD2  HA22 3159   1.934   1.011   3.864  0.0000  0.0000  0.0000
  213MPD2  HA23 3160   2.302   0.797   3.789  0.0000  0.0000  0.0000
  213MPD2  HA24 3161   2.161   0.612   3.713  0.0000  0.0000  0.0000
  213MPD2  HA25 3162   1.925   0.595   3.750  0.0000  0.0000  0.0000
  213MPD2  HN26 3163   1.735   0.922   3.824  0.0000  0.0000  0.0000
  213MPD2  HN27 3164   2.286   1.042   3.810  0.0000  0.0000  0.0000
  213MPD2  NB28 3165   1.774   0.830   3.837  0.0000  0.0000  0.0000
  213MPD2  NB29 3166   2.204   1.034   3.869  0.0000  0.0000  0.0000
  214MPD2  CA16 3167   1.373   1.804   4.826  0.0000  0.0000  0.0000
  214MPD2  CA17 3168   1.445   1.751   4.936  0.0000  0.0000  0.0000
  214MPD2  CA18 3169   1.586   1.749   4.929  0.0000  0.0000  0.0000
  214MPD2  CA19 3170   1.649   1.811   4.822  0.0000  0.0000  0.0000
  214MPD2  CA20 3171   1.575   1.880   4.727  0.0000  0.0000  0.0000
  214MPD2  CA21 3172   1.438   1.870   4.719  0.0000  0.0000  0.0000
  214MPD2  HA22 3173   1.392   1.698   5.014  0.0000  0.0000  0.0000
  214MPD2  HA23 3174   1.757   1.814   4.830  0.0000  0.0000  0.0000
  214MPD2  HA24 3175   1.632   1.919   4.643  0.0000  0.0000  0.0000
  214MPD2  HA25 3176   1.384   1.915   4.636  0.0000  0.0000  0.0000
  214MPD2  HN26 3177   1.195   1.710   4.829  0.0000  0.0000  0.0000
  214MPD2  HN27 3178   1.746   1.626   4.993  0.0000  0.0000  0.0000
  214MPD2  NB28 3179   1.228   1.805   4.817  0.0000  0.0000  0.0000
  214MPD2  NB29 3180   1.665   1.675   5.028  0.0000  0.0000  0.0000
  215MPD1   CA1 3181   3.371   1.474   4.972  0.0000  0.0000  0.0000
  215MPD1   CA2 3182   3.422   1.602   4.988  0.0000  0.0000  0.0000
  215MPD1   CA3 3183   3.526   1.630   5.079  0.0000  0.0000  0.0000
  215MPD1   CA4 3184   3.572   1.532   5.158  0.0000  0.0000  0.0000
  215MPD1   CA5 3185   3.521   1.401   5.147  0.0000  0.0000  0.0000
  215MPD1   CA6 3186   3.423   1.372   5.054  0.0000  0.0000  0.0000
  215MPD1  HA10 3187   3.390   1.269   5.044  0.0000  0.0000  0.0000
  215MPD1   HA7 3188   3.384   1.675   4.917  0.0000  0.0000  0.0000
  215MPD1   HA8 3189   3.652   1.551   5.229  0.0000  0.0000  0.0000
  215MPD1   HA9 3190   3.562   1.314   5.196  0.0000  0.0000  0.0000
  215MPD1  HN11 3191   3.289   1.489   4.785  0.0000  0.0000  0.0000
  215MPD1  HN12 3192   3.671   1.776   5.140  0.0000  0.0000  0.0000
  215MPD1  HN13 3193   3.541   1.831   5.054  0.0000  0.0000  0.0000
  215MPD1  NB14 3194   3.273   1.444   4.874  0.0000  0.0000  0.0000
  215MPD1  NH15 3195   3.599   1.750   5.074  0.0000  0.0000  0.0000
  216MPD2  CA16 3196   1.372  -2.001   4.232  0.0000  0.0000  0.0000
  216MPD2  CA17 3197   1.273  -1.980   4.331  0.0000  0.0000  0.0000
  216MPD2  CA18 3198   1.139  -1.947   4.299  0.0000  0.0000  0.0000
  216MPD2  CA19 3199   1.107  -1.930   4.161  0.0000  0.0000  0.0000
  216MPD2  CA20 3200   1.209  -1.938   4.059  0.0000  0.0000  0.0000
  216MPD2  CA21 3201   1.339  -1.973   4.097  0.0000  0.0000  0.0000
  216MPD2  HA22 3202   1.296  -2.004   4.434  0.0000  0.0000  0.0000
  216MPD2  HA23 3203   1.002  -1.918   4.137  0.0000  0.0000  0.0000
  216MPD2  HA24 3204   1.178  -1.926   3.956  0.0000  0.0000  0.0000
  216MPD2  HA25 3205   1.419  -2.000   4.029  0.0000  0.0000  0.0000
  216MPD2  HN26 3206   1.549  -2.106   4.199  0.0000  0.0000  0.0000
  216MPD2  HN27 3207   1.087  -1.854   4.474  0.0000  0.0000  0.0000
  216MPD2  NB28 3208   1.500  -2.053   4.270  0.0000  0.0000  0.0000
  216MPD2  NB29 3209   1.051  -1.921   4.408  0.0000  0.0000  0.0000
  217MPD2  CA16 3210   3.134  -1.258   3.663  0.0000  0.0000  0.0000
  217MPD2  CA17 3211   3.229  -1.152   3.648  0.0000  0.0000  0.0000
  217MPD2  CA18 3212   3.311  -1.112   3.752  0.0000  0.0000  0.0000
  217MPD2  CA19 3213   3.305  -1.186   3.867  0.0000  0.0000  0.0000
  217MPD2  CA20 3214   3.218  -1.295   3.888  0.0000  0.0000  0.0000
  217MPD2  CA21 3215   3.130  -1.332   3.783  0.0000  0.0000  0.0000
  217MPD2  HA22 3216   3.240  -1.105   3.551  0.0000  0.0000  0.0000
  217MPD2  HA23 3217   3.363  -1.152   3.953  0.0000  0.0000  0.0000
  217MPD2  HA24 3218   3.220  -1.348   3.983  0.0000  0.0000  0.0000
  217MPD2  HA25 3219   3.059  -1.413   3.795  0.0000  0.0000  0.0000
  217MPD2  HN26 3220   2.998  -1.390   3.570  0.0000  0.0000  0.0000
  217MPD2  HN27 3221   3.374  -0.956   3.653  0.0000  0.0000  0.0000
  217MPD2  NB28 3222   3.058  -1.310   3.553  0.0000  0.0000  0.0000
  217MPD2  NB29 3223   3.381  -0.990   3.749  0.0000  0.0000  0.0000
  218MPD2  CA16 3224   4.084  -0.657   2.803  0.0000  0.0000  0.0000
  218MPD2  CA17 3225   4.191  -0.571   2.835  0.0000  0.0000  0.0000
  218MPD2  CA18 3226   4.318  -0.616   2.869  0.0000  0.0000  0.0000
  218MPD2  CA19 3227   4.348  -0.749   2.843  0.0000  0.0000  0.0000
  218MPD2  CA20 3228   4.245  -0.838   2.816  0.0000  0.0000  0.0000
  218MPD2  CA21 3229   4.110  -0.794   2.806  0.0000  0.0000  0.0000
  218MPD2  HA22 3230   4.166  -0.466   2.849  0.0000  0.0000  0.0000
  218MPD2  HA23 3231   4.448  -0.790   2.858  0.0000  0.0000  0.0000
  218MPD2  HA24 3232   4.268  -0.945   2.809  0.0000  0.0000  0.0000
  218MPD2  HA25 3233   4.034  -0.864   2.773  0.0000  0.0000  0.0000
  218MPD2  HN26 3234   3.870  -0.674   2.822  0.0000  0.0000  0.0000
  218MPD2  HN27 3235   4.405  -0.445   2.834  0.0000  0.0000  0.0000
  218MPD2  NB28 3236   3.944  -0.615   2.786  0.0000  0.0000  0.0000
  218MPD2  NB29 3237   4.412  -0.520   2.901  0.0000  0.0000  0.0000
  219MPD2  CA16 3238   3.361   1.282   3.999  0.0000  0.0000  0.0000
  219MPD2  CA17 3239   3.291   1.267   4.119  0.0000  0.0000  0.0000
  219MPD2  CA18 3240   3.332   1.318   4.247  0.0000  0.0000  0.0000
  219MPD2  CA19 3241   3.452   1.387   4.251  0.0000  0.0000  0.0000
  219MPD2  CA20 3242   3.533   1.401   4.132  0.0000  0.0000  0.0000
  219MPD2  CA21 3243   3.487   1.348   4.008  0.0000  0.0000  0.0000
  219MPD2  HA22 3244   3.195   1.216   4.113  0.0000  0.0000  0.0000
  219MPD2  HA23 3245   3.483   1.440   4.341  0.0000  0.0000  0.0000
  219MPD2  HA24 3246   3.620   1.465   4.136  0.0000  0.0000  0.0000
  219MPD2  HA25 3247   3.552   1.368   3.923  0.0000  0.0000  0.0000
  219MPD2  HN26 3248   3.230   1.256   3.835  0.0000  0.0000  0.0000
  219MPD2  HN27 3249   3.276   1.385   4.440  0.0000  0.0000  0.0000
  219MPD2  NB28 3250   3.318   1.230   3.878  0.0000  0.0000  0.0000
  219MPD2  NB29 3251   3.244   1.332   4.360  0.0000  0.0000  0.0000
  220MPD1   CA1 3252   0.725   0.114   5.474  0.0000  0.0000  0.0000
  220MPD1   CA2 3253   0.592   0.136   5.510  0.0000  0.0000  0.0000
  220MPD1   CA3 3254   0.520   0.235   5.443  0.0000  0.0000  0.0000
  220MPD1   CA4 3255   0.583   0.331   5.353  0.0000  0.0000  0.0000
  220MPD1   CA5 3256   0.717   0.316   5.337  0.0000  0.0000  0.0000
  220MPD1   CA6 3257   0.786   0.205   5.388  0.0000  0.0000  0.0000
  220MPD1  HA10 3258   0.893   0.201   5.375  0.0000  0.0000  0.0000
  220MPD1   HA7 3259   0.544   0.072   5.583  0.0000  0.0000  0.0000
  220MPD1   HA8 3260   0.519   0.411   5.318  0.0000  0.0000  0.0000
  220MPD1   HA9 3261   0.774   0.394   5.288  0.0000  0.0000  0.0000
  220MPD1  HN11 3262   0.870  -0.040   5.482  0.0000  0.0000  0.0000
  220MPD1  HN12 3263   0.338   0.162   5.497  0.0000  0.0000  0.0000
  220MPD1  HN13 3264   0.332   0.324   5.427  0.0000  0.0000  0.0000
  220MPD1  NB14 3265   0.808   0.012   5.542  0.0000  0.0000  0.0000
  220MPD1  NH15 3266   0.383   0.249   5.471  0.0000  0.0000  0.0000
  221MPD2  CA16 3267   3.009   1.647   5.051  0.0000  0.0000  0.0000
  221MPD2  CA17 3268   2.872   1.634   5.078  0.0000  0.0000  0.0000
  221MPD2  CA18 3269   2.778   1.662   4.978  0.0000  0.0000  0.0000
  221MPD2  CA19 3270   2.825   1.714   4.848  0.0000  0.0000  0.0000
  221MPD2  CA20 3271   2.960   1.726   4.826  0.0000  0.0000  0.0000
  221MPD2  CA21 3272   3.054   1.693   4.926  0.0000  0.0000  0.0000
  221MPD2  HA22 3273   2.832   1.607   5.175  0.0000  0.0000  0.0000
  221MPD2  HA23 3274   2.763   1.742   4.764  0.0000  0.0000  0.0000
  221MPD2  HA24 3275   2.995   1.763   4.730  0.0000  0.0000  0.0000
  221MPD2  HA25 3276   3.161   1.702   4.910  0.0000  0.0000  0.0000
  221MPD2  HN26 3277   3.101   1.511   5.179  0.0000  0.0000  0.0000
  221MPD2  HN27 3278   2.601   1.658   5.093  0.0000  0.0000  0.0000
  221MPD2  NB28 3279   3.098   1.609   5.152  0.0000  0.0000  0.0000
  221MPD2  NB29 3280   2.638   1.641   5.000  0.0000  0.0000  0.0000
  222MPD2  CA16 3281   1.071  -0.717   4.546  0.0000  0.0000  0.0000
  222MPD2  CA17 3282   1.039  -0.777   4.671  0.0000  0.0000  0.0000
  222MPD2  CA18 3283   1.035  -0.918   4.683  0.0000  0.0000  0.0000
  222MPD2  CA19 3284   1.085  -0.996   4.578  0.0000  0.0000  0.0000
  222MPD2  CA20 3285   1.127  -0.934   4.461  0.0000  0.0000  0.0000
  222MPD2  CA21 3286   1.103  -0.799   4.438  0.0000  0.0000  0.0000
  222MPD2  HA22 3287   0.996  -0.716   4.749  0.0000  0.0000  0.0000
  222MPD2  HA23 3288   1.106  -1.101   4.593  0.0000  0.0000  0.0000
  222MPD2  HA24 3289   1.157  -0.998   4.379  0.0000  0.0000  0.0000
  222MPD2  HA25 3290   1.121  -0.760   4.339  0.0000  0.0000  0.0000
  222MPD2  HN26 3291   1.072  -0.545   4.432  0.0000  0.0000  0.0000
  222MPD2  HN27 3292   1.055  -0.926   4.887  0.0000  0.0000  0.0000
  222MPD2  NB28 3293   1.067  -0.574   4.529  0.0000  0.0000  0.0000
  222MPD2  NB29 3294   1.010  -0.970   4.808  0.0000  0.0000  0.0000
  223MPD2  CA16 3295   0.873   1.554   5.191  0.0000  0.0000  0.0000
  223MPD2  CA17 3296   0.861   1.693   5.177  0.0000  0.0000  0.0000
  223MPD2  CA18 3297   0.741   1.757   5.141  0.0000  0.0000  0.0000
  223MPD2  CA19 3298   0.636   1.670   5.109  0.0000  0.0000  0.0000
  223MPD2  CA20 3299   0.643   1.534   5.122  0.0000  0.0000  0.0000
  223MPD2  CA21 3300   0.760   1.476   5.166  0.0000  0.0000  0.0000
  223MPD2  HA22 3301   0.950   1.749   5.203  0.0000  0.0000  0.0000
  223MPD2  HA23 3302   0.540   1.717   5.087  0.0000  0.0000  0.0000
  223MPD2  HA24 3303   0.556   1.470   5.110  0.0000  0.0000  0.0000
  223MPD2  HA25 3304   0.764   1.374   5.200  0.0000  0.0000  0.0000
  223MPD2  HN26 3305   0.980   1.421   5.302  0.0000  0.0000  0.0000
  223MPD2  HN27 3306   0.648   1.930   5.187  0.0000  0.0000  0.0000
  223MPD2  NB28 3307   0.992   1.496   5.235  0.0000  0.0000  0.0000
  223MPD2  NB29 3308   0.732   1.898   5.143  0.0000  0.0000  0.0000
  224MPD1   CA1 3309   3.231  -1.143   5.563  0.0000  0.0000  0.0000
  224MPD1   CA2 3310   3.312  -1.222   5.480  0.0000  0.0000  0.0000
  224MPD1   CA3 3311   3.449  -1.193   5.461  0.0000  0.0000  0.0000
  224MPD1   CA4 3312   3.505  -1.081   5.533  0.0000  0.0000  0.0000
  224MPD1   CA5 3313   3.424  -1.002   5.615  0.0000  0.0000  0.0000
  224MPD1   CA6 3314   3.288  -1.040   5.630  0.0000  0.0000  0.0000
  224MPD1  HA10 3315   3.228  -0.979   5.698  0.0000  0.0000  0.0000
  224MPD1   HA7 3316   3.268  -1.305   5.426  0.0000  0.0000  0.0000
  224MPD1   HA8 3317   3.606  -1.043   5.517  0.0000  0.0000  0.0000
  224MPD1   HA9 3318   3.468  -0.917   5.666  0.0000  0.0000  0.0000
  224MPD1  HN11 3319   3.065  -1.263   5.528  0.0000  0.0000  0.0000
  224MPD1  HN12 3320   3.519  -1.365   5.378  0.0000  0.0000  0.0000
  224MPD1  HN13 3321   3.616  -1.220   5.366  0.0000  0.0000  0.0000
  224MPD1  NB14 3322   3.098  -1.181   5.578  0.0000  0.0000  0.0000
  224MPD1  NH15 3323   3.526  -1.264   5.374  0.0000  0.0000  0.0000
  225MPD2  CA16 3324   3.780  -0.800   3.754  0.0000  0.0000  0.0000
  225MPD2  CA17 3325   3.771  -0.811   3.614  0.0000  0.0000  0.0000
  225MPD2  CA18 3326   3.746  -0.939   3.561  0.0000  0.0000  0.0000
  225MPD2  CA19 3327   3.739  -1.050   3.641  0.0000  0.0000  0.0000
  225MPD2  CA20 3328   3.746  -1.031   3.776  0.0000  0.0000  0.0000
  225MPD2  CA21 3329   3.773  -0.910   3.837  0.0000  0.0000  0.0000
  225MPD2  HA22 3330   3.775  -0.725   3.548  0.0000  0.0000  0.0000
  225MPD2  HA23 3331   3.723  -1.151   3.603  0.0000  0.0000  0.0000
  225MPD2  HA24 3332   3.759  -1.121   3.835  0.0000  0.0000  0.0000
  225MPD2  HA25 3333   3.778  -0.900   3.945  0.0000  0.0000  0.0000
  225MPD2  HN26 3334   3.809  -0.601   3.727  0.0000  0.0000  0.0000
  225MPD2  HN27 3335   3.771  -0.984   3.354  0.0000  0.0000  0.0000
  225MPD2  NB28 3336   3.807  -0.670   3.802  0.0000  0.0000  0.0000
  225MPD2  NB29 3337   3.705  -0.960   3.427  0.0000  0.0000  0.0000
  226MPD2  CA16 3338   1.258   0.861   4.333  0.0000  0.0000  0.0000
  226MPD2  CA17 3339   1.311   0.951   4.246  0.0000  0.0000  0.0000
  226MPD2  CA18 3340   1.222   1.040   4.183  0.0000  0.0000  0.0000
  226MPD2  CA19 3341   1.085   1.041   4.211  0.0000  0.0000  0.0000
  226MPD2  CA20 3342   1.040   0.952   4.307  0.0000  0.0000  0.0000
  226MPD2  CA21 3343   1.121   0.859   4.364  0.0000  0.0000  0.0000
  226MPD2  HA22 3344   1.416   0.950   4.218  0.0000  0.0000  0.0000
  226MPD2  HA23 3345   1.018   1.114   4.166  0.0000  0.0000  0.0000
  226MPD2  HA24 3346   0.933   0.952   4.327  0.0000  0.0000  0.0000
  226MPD2  HA25 3347   1.082   0.789   4.437  0.0000  0.0000  0.0000
  226MPD2  HN26 3348   1.446   0.808   4.380  0.0000  0.0000  0.0000
  226MPD2  HN27 3349   1.241   1.220   4.087  0.0000  0.0000  0.0000
  226MPD2  NB28 3350   1.353   0.768   4.379  0.0000  0.0000  0.0000
  226MPD2  NB29 3351   1.271   1.123   4.081  0.0000  0.0000  0.0000
  227MPD2  CA16 3352   3.782  -0.277   3.179  0.0000  0.0000  0.0000
  227MPD2  CA17 3353   3.861  -0.362   3.250  0.0000  0.0000  0.0000
  227MPD2  CA18 3354   3.984  -0.404   3.212  0.0000  0.0000  0.0000
  227MPD2  CA19 3355   4.037  -0.351   3.098  0.0000  0.0000  0.0000
  227MPD2  CA20 3356   3.957  -0.260   3.024  0.0000  0.0000  0.0000
  227MPD2  CA21 3357   3.834  -0.214   3.070  0.0000  0.0000  0.0000
  227MPD2  HA22 3358   3.813  -0.405   3.337  0.0000  0.0000  0.0000
  227MPD2  HA23 3359   4.135  -0.385   3.065  0.0000  0.0000  0.0000
  227MPD2  HA24 3360   3.991  -0.217   2.930  0.0000  0.0000  0.0000
  227MPD2  HA25 3361   3.786  -0.137   3.011  0.0000  0.0000  0.0000
  227MPD2  HN26 3362   3.661  -0.167   3.308  0.0000  0.0000  0.0000
  227MPD2  HN27 3363   4.151  -0.513   3.237  0.0000  0.0000  0.0000
  227MPD2  NB28 3364   3.653  -0.228   3.228  0.0000  0.0000  0.0000
  227MPD2  NB29 3365   4.068  -0.484   3.288  0.0000  0.0000  0.0000
  228MPD2  CA16 3366   3.529  -0.626   3.307  0.0000  0.0000  0.0000
  228MPD2  CA17 3367   3.446  -0.646   3.187  0.0000  0.0000  0.0000
  228MPD2  CA18 3368   3.507  -0.674   3.062  0.0000  0.0000  0.0000
  228MPD2  CA19 3369   3.644  -0.693   3.054  0.0000  0.0000  0.0000
  228MPD2  CA20 3370   3.721  -0.675   3.163  0.0000  0.0000  0.0000
  228MPD2  CA21 3371   3.668  -0.641   3.291  0.0000  0.0000  0.0000
  228MPD2  HA22 3372   3.338  -0.635   3.193  0.0000  0.0000  0.0000
  228MPD2  HA23 3373   3.683  -0.723   2.957  0.0000  0.0000  0.0000
  228MPD2  HA24 3374   3.828  -0.693   3.151  0.0000  0.0000  0.0000
  228MPD2  HA25 3375   3.732  -0.630   3.378  0.0000  0.0000  0.0000
  228MPD2  HN26 3376   3.424  -0.691   3.462  0.0000  0.0000  0.0000
  228MPD2  HN27 3377   3.348  -0.745   2.960  0.0000  0.0000  0.0000
  228MPD2  NB28 3378   3.482  -0.612   3.436  0.0000  0.0000  0.0000
  228MPD2  NB29 3379   3.428  -0.684   2.946  0.0000  0.0000  0.0000
  229MPD2  CA16 3380   3.001   1.219   3.176  0.0000  0.0000  0.0000
  229MPD2  CA17 3381   2.979   1.148   3.058  0.0000  0.0000  0.0000
  229MPD2  CA18 3382   2.895   1.195   2.953  0.0000  0.0000  0.0000
  229MPD2  CA19 3383   2.849   1.321   2.959  0.0000  0.0000  0.0000
  229MPD2  CA20 3384   2.880   1.401   3.072  0.0000  0.0000  0.0000
  229MPD2  CA21 3385   2.959   1.351   3.181  0.0000  0.0000  0.0000
  229MPD2  HA22 3386   3.015   1.046   3.045  0.0000  0.0000  0.0000
  229MPD2  HA23 3387   2.792   1.366   2.879  0.0000  0.0000  0.0000
  229MPD2  HA24 3388   2.834   1.499   3.081  0.0000  0.0000  0.0000
  229MPD2  HA25 3389   2.982   1.426   3.255  0.0000  0.0000  0.0000
  229MPD2  HN26 3390   3.165   1.109   3.231  0.0000  0.0000  0.0000
  229MPD2  HN27 3391   2.948   1.055   2.813  0.0000  0.0000  0.0000
  229MPD2  NB28 3392   3.097   1.174   3.268  0.0000  0.0000  0.0000
  229MPD2  NB29 3393   2.874   1.117   2.841  0.0000  0.0000  0.0000
  230MPD2  CA16 3394   2.257   1.840   5.480  0.0000  0.0000  0.0000
  230MPD2  CA17 3395   2.155   1.928   5.512  0.0000  0.0000  0.0000
  230MPD2  CA18 3396   2.121   1.963   5.639  0.0000  0.0000  0.0000
  230MPD2  CA19 3397   2.184   1.896   5.742  0.0000  0.0000  0.0000
  230MPD2  CA20 3398   2.297   1.818   5.717  0.0000  0.0000  0.0000
  230MPD2  CA21 3399   2.337   1.788   5.582  0.0000  0.0000  0.0000
  230MPD2  HA22 3400   2.098   1.966   5.427  0.0000  0.0000  0.0000
  230MPD2  HA23 3401   2.152   1.921   5.843  0.0000  0.0000  0.0000
  230MPD2  HA24 3402   2.347   1.775   5.804  0.0000  0.0000  0.0000
  230MPD2  HA25 3403   2.416   1.719   5.554  0.0000  0.0000  0.0000
  230MPD2  HN26 3404   2.376   1.805   5.311  0.0000  0.0000  0.0000
  230MPD2  HN27 3405   2.022   2.145   5.632  0.0000  0.0000  0.0000
  230MPD2  NB28 3406   2.279   1.804   5.343  0.0000  0.0000  0.0000
  230MPD2  NB29 3407   2.009   2.048   5.656  0.0000  0.0000  0.0000
  231MPD2  CA16 3408   3.038  -2.075   4.005  0.0000  0.0000  0.0000
  231MPD2  CA17 3409   3.003  -1.975   3.905  0.0000  0.0000  0.0000
  231MPD2  CA18 3410   3.099  -1.925   3.815  0.0000  0.0000  0.0000
  231MPD2  CA19 3411   3.224  -1.973   3.829  0.0000  0.0000  0.0000
  231MPD2  CA20 3412   3.256  -2.070   3.925  0.0000  0.0000  0.0000
  231MPD2  CA21 3413   3.167  -2.120   4.016  0.0000  0.0000  0.0000
  231MPD2  HA22 3414   2.901  -1.941   3.891  0.0000  0.0000  0.0000
  231MPD2  HA23 3415   3.306  -1.929   3.773  0.0000  0.0000  0.0000
  231MPD2  HA24 3416   3.363  -2.090   3.931  0.0000  0.0000  0.0000
  231MPD2  HA25 3417   3.200  -2.198   4.084  0.0000  0.0000  0.0000
  231MPD2  HN26 3418   2.997  -2.144   4.190  0.0000  0.0000  0.0000
  231MPD2  HN27 3419   2.989  -1.861   3.645  0.0000  0.0000  0.0000
  231MPD2  NB28 3420   2.949  -2.116   4.105  0.0000  0.0000  0.0000
  231MPD2  NB29 3421   3.065  -1.839   3.708  0.0000  0.0000  0.0000
  232MPD2  CA16 3422   2.435   1.058   5.206  0.0000  0.0000  0.0000
  232MPD2  CA17 3423   2.317   1.116   5.244  0.0000  0.0000  0.0000
  232MPD2  CA18 3424   2.281   1.244   5.197  0.0000  0.0000  0.0000
  232MPD2  CA19 3425   2.376   1.330   5.133  0.0000  0.0000  0.0000
  232MPD2  CA20 3426   2.499   1.272   5.107  0.0000  0.0000  0.0000
  232MPD2  CA21 3427   2.528   1.142   5.149  0.0000  0.0000  0.0000
  232MPD2  HA22 3428   2.240   1.064   5.300  0.0000  0.0000  0.0000
  232MPD2  HA23 3429   2.349   1.426   5.089  0.0000  0.0000  0.0000
  232MPD2  HA24 3430   2.572   1.324   5.046  0.0000  0.0000  0.0000
  232MPD2  HA25 3431   2.625   1.105   5.118  0.0000  0.0000  0.0000
  232MPD2  HN26 3432   2.418   0.893   5.330  0.0000  0.0000  0.0000
  232MPD2  HN27 3433   2.122   1.277   5.326  0.0000  0.0000  0.0000
  232MPD2  NB28 3434   2.457   0.925   5.242  0.0000  0.0000  0.0000
  232MPD2  NB29 3435   2.146   1.291   5.228  0.0000  0.0000  0.0000
  233MPD2  CA16 3436   1.111  -0.886   5.527  0.0000  0.0000  0.0000
  233MPD2  CA17 3437   1.090  -0.749   5.541  0.0000  0.0000  0.0000
  233MPD2  CA18 3438   1.142  -0.677   5.650  0.0000  0.0000  0.0000
  233MPD2  CA19 3439   1.225  -0.739   5.736  0.0000  0.0000  0.0000
  233MPD2  CA20 3440   1.262  -0.874   5.715  0.0000  0.0000  0.0000
  233MPD2  CA21 3441   1.198  -0.946   5.618  0.0000  0.0000  0.0000
  233MPD2  HA22 3442   1.029  -0.696   5.468  0.0000  0.0000  0.0000
  233MPD2  HA23 3443   1.278  -0.685   5.814  0.0000  0.0000  0.0000
  233MPD2  HA24 3444   1.332  -0.919   5.785  0.0000  0.0000  0.0000
  233MPD2  HA25 3445   1.218  -1.052   5.609  0.0000  0.0000  0.0000
  233MPD2  HN26 3446   1.089  -1.061   5.416  0.0000  0.0000  0.0000
  233MPD2  HN27 3447   1.182  -0.497   5.739  0.0000  0.0000  0.0000
  233MPD2  NB28 3448   1.047  -0.969   5.427  0.0000  0.0000  0.0000
  233MPD2  NB29 3449   1.116  -0.538   5.674  0.0000  0.0000  0.0000
  234MPD2  CA16 3450   2.777   1.481   3.485  0.0000  0.0000  0.0000
  234MPD2  CA17 3451   2.799   1.605   3.432  0.0000  0.0000  0.0000
  234MPD2  CA18 3452   2.849   1.703   3.522  0.0000  0.0000  0.0000
  234MPD2  CA19 3453   2.863   1.682   3.657  0.0000  0.0000  0.0000
  234MPD2  CA20 3454   2.834   1.559   3.709  0.0000  0.0000  0.0000
  234MPD2  CA21 3455   2.788   1.462   3.623  0.0000  0.0000  0.0000
  234MPD2  HA22 3456   2.771   1.632   3.331  0.0000  0.0000  0.0000
  234MPD2  HA23 3457   2.878   1.766   3.725  0.0000  0.0000  0.0000
  234MPD2  HA24 3458   2.843   1.535   3.815  0.0000  0.0000  0.0000
  234MPD2  HA25 3459   2.766   1.363   3.661  0.0000  0.0000  0.0000
  234MPD2  HN26 3460   2.803   1.309   3.371  0.0000  0.0000  0.0000
  234MPD2  HN27 3461   2.766   1.880   3.455  0.0000  0.0000  0.0000
  234MPD2  NB28 3462   2.734   1.371   3.412  0.0000  0.0000  0.0000
  234MPD2  NB29 3463   2.856   1.840   3.479  0.0000  0.0000  0.0000
  235MPD2  CA16 3464   3.536   0.433   3.225  0.0000  0.0000  0.0000
  235MPD2  CA17 3465   3.449   0.543   3.252  0.0000  0.0000  0.0000
  235MPD2  CA18 3466   3.505   0.675   3.256  0.0000  0.0000  0.0000
  235MPD2  CA19 3467   3.630   0.692   3.198  0.0000  0.0000  0.0000
  235MPD2  CA20 3468   3.710   0.587   3.168  0.0000  0.0000  0.0000
  235MPD2  CA21 3469   3.669   0.456   3.184  0.0000  0.0000  0.0000
  235MPD2  HA22 3470   3.348   0.524   3.286  0.0000  0.0000  0.0000
  235MPD2  HA23 3471   3.672   0.791   3.186  0.0000  0.0000  0.0000
  235MPD2  HA24 3472   3.813   0.599   3.138  0.0000  0.0000  0.0000
  235MPD2  HA25 3473   3.737   0.374   3.163  0.0000  0.0000  0.0000
  235MPD2  HN26 3474   3.548   0.232   3.159  0.0000  0.0000  0.0000
  235MPD2  HN27 3475   3.345   0.806   3.289  0.0000  0.0000  0.0000
  235MPD2  NB28 3476   3.494   0.290   3.222  0.0000  0.0000  0.0000
  235MPD2  NB29 3477   3.433   0.772   3.327  0.0000  0.0000  0.0000
  236MPD2  CA16 3478   1.790  -0.201   4.397  0.0000  0.0000  0.0000
  236MPD2  CA17 3479   1.752  -0.059   4.385  0.0000  0.0000  0.0000
  236MPD2  CA18 3480   1.778   0.032   4.489  0.0000  0.0000  0.0000
  236MPD2  CA19 3481   1.835  -0.020   4.610  0.0000  0.0000  0.0000
  236MPD2  CA20 3482   1.878  -0.152   4.619  0.0000  0.0000  0.0000
  236MPD2  CA21 3483   1.856  -0.245   4.512  0.0000  0.0000  0.0000
  236MPD2  HA22 3484   1.697  -0.029   4.296  0.0000  0.0000  0.0000
  236MPD2  HA23 3485   1.843   0.039   4.701  0.0000  0.0000  0.0000
  236MPD2  HA24 3486   1.940  -0.184   4.702  0.0000  0.0000  0.0000
  236MPD2  HA25 3487   1.890  -0.345   4.535  0.0000  0.0000  0.0000
  236MPD2  HN26 3488   1.676  -0.288   4.240  0.0000  0.0000  0.0000
  236MPD2  HN27 3489   1.791   0.230   4.553  0.0000  0.0000  0.0000
  236MPD2  NB28 3490   1.763  -0.297   4.291  0.0000  0.0000  0.0000
  236MPD2  NB29 3491   1.739   0.170   4.490  0.0000  0.0000  0.0000
  237MPD2  CA16 3492   1.441   1.160   5.768  0.0000  0.0000  0.0000
  237MPD2  CA17 3493   1.332   1.073   5.800  0.0000  0.0000  0.0000
  237MPD2  CA18 3494   1.349   0.969   5.901  0.0000  0.0000  0.0000
  237MPD2  CA19 3495   1.465   0.977   5.975  0.0000  0.0000  0.0000
  237MPD2  CA20 3496   1.563   1.073   5.956  0.0000  0.0000  0.0000
  237MPD2  CA21 3497   1.554   1.167   5.852  0.0000  0.0000  0.0000
  237MPD2  HA22 3498   1.241   1.079   5.741  0.0000  0.0000  0.0000
  237MPD2  HA23 3499   1.481   0.896   6.046  0.0000  0.0000  0.0000
  237MPD2  HA24 3500   1.652   1.064   6.017  0.0000  0.0000  0.0000
  237MPD2  HA25 3501   1.635   1.236   5.828  0.0000  0.0000  0.0000
  237MPD2  HN26 3502   1.533   1.227   5.590  0.0000  0.0000  0.0000
  237MPD2  HN27 3503   1.252   0.833   6.018  0.0000  0.0000  0.0000
  237MPD2  NB28 3504   1.442   1.217   5.633  0.0000  0.0000  0.0000
  237MPD2  NB29 3505   1.266   0.850   5.919  0.0000  0.0000  0.0000
  238MPD1   CA1 3506   3.294   0.415   4.843  0.0000  0.0000  0.0000
  238MPD1   CA2 3507   3.210   0.530   4.825  0.0000  0.0000  0.0000
  238MPD1   CA3 3508   3.070   0.518   4.838  0.0000  0.0000  0.0000
  238MPD1   CA4 3509   3.010   0.397   4.868  0.0000  0.0000  0.0000
  238MPD1   CA5 3510   3.095   0.285   4.888  0.0000  0.0000  0.0000
  238MPD1   CA6 3511   3.234   0.290   4.878  0.0000  0.0000  0.0000
  238MPD1  HA10 3512   3.294   0.202   4.901  0.0000  0.0000  0.0000
  238MPD1   HA7 3513   3.259   0.626   4.808  0.0000  0.0000  0.0000
  238MPD1   HA8 3514   2.906   0.390   4.897  0.0000  0.0000  0.0000
  238MPD1   HA9 3515   3.045   0.193   4.916  0.0000  0.0000  0.0000
  238MPD1  HN11 3516   3.475   0.348   4.770  0.0000  0.0000  0.0000
  238MPD1  HN12 3517   3.041   0.721   4.803  0.0000  0.0000  0.0000
  238MPD1  HN13 3518   2.897   0.617   4.795  0.0000  0.0000  0.0000
  238MPD1  NB14 3519   3.436   0.420   4.828  0.0000  0.0000  0.0000
  238MPD1  NH15 3520   2.995   0.633   4.818  0.0000  0.0000  0.0000
  239MPD2  CA16 3521   2.219  -1.927   4.232  0.0000  0.0000  0.0000
  239MPD2  CA17 3522   2.209  -1.856   4.111  0.0000  0.0000  0.0000
  239MPD2  CA18 3523   2.083  -1.810   4.069  0.0000  0.0000  0.0000
  239MPD2  CA19 3524   1.973  -1.819   4.155  0.0000  0.0000  0.0000
  239MPD2  CA20 3525   1.979  -1.889   4.273  0.0000  0.0000  0.0000
  239MPD2  CA21 3526   2.102  -1.944   4.309  0.0000  0.0000  0.0000
  239MPD2  HA22 3527   2.298  -1.835   4.052  0.0000  0.0000  0.0000
  239MPD2  HA23 3528   1.879  -1.773   4.127  0.0000  0.0000  0.0000
  239MPD2  HA24 3529   1.887  -1.894   4.330  0.0000  0.0000  0.0000
  239MPD2  HA25 3530   2.112  -1.997   4.403  0.0000  0.0000  0.0000
  239MPD2  HN26 3531   2.418  -1.936   4.214  0.0000  0.0000  0.0000
  239MPD2  HN27 3532   2.125  -1.634   3.965  0.0000  0.0000  0.0000
  239MPD2  NB28 3533   2.342  -1.979   4.266  0.0000  0.0000  0.0000
  239MPD2  NB29 3534   2.070  -1.719   3.956  0.0000  0.0000  0.0000
  240MPD1   CA1 3535   2.062   1.306   4.598  0.0000  0.0000  0.0000
  240MPD1   CA2 3536   2.148   1.310   4.712  0.0000  0.0000  0.0000
  240MPD1   CA3 3537   2.280   1.266   4.699  0.0000  0.0000  0.0000
  240MPD1   CA4 3538   2.325   1.217   4.575  0.0000  0.0000  0.0000
  240MPD1   CA5 3539   2.243   1.221   4.466  0.0000  0.0000  0.0000
  240MPD1   CA6 3540   2.108   1.259   4.475  0.0000  0.0000  0.0000
  240MPD1  HA10 3541   2.047   1.262   4.385  0.0000  0.0000  0.0000
  240MPD1   HA7 3542   2.106   1.351   4.804  0.0000  0.0000  0.0000
  240MPD1   HA8 3543   2.425   1.177   4.561  0.0000  0.0000  0.0000
  240MPD1   HA9 3544   2.285   1.185   4.372  0.0000  0.0000  0.0000
  240MPD1  HN11 3545   1.937   1.442   4.654  0.0000  0.0000  0.0000
  240MPD1  HN12 3546   2.445   1.211   4.802  0.0000  0.0000  0.0000
  240MPD1  HN13 3547   2.304   1.248   4.903  0.0000  0.0000  0.0000
  240MPD1  NB14 3548   1.931   1.353   4.606  0.0000  0.0000  0.0000
  240MPD1  NH15 3549   2.355   1.255   4.816  0.0000  0.0000  0.0000
  241MPD2  CA16 3550   3.225  -0.313   5.072  0.0000  0.0000  0.0000
  241MPD2  CA17 3551   3.109  -0.385   5.103  0.0000  0.0000  0.0000
  241MPD2  CA18 3552   3.093  -0.518   5.062  0.0000  0.0000  0.0000
  241MPD2  CA19 3553   3.195  -0.581   5.005  0.0000  0.0000  0.0000
  241MPD2  CA20 3554   3.315  -0.517   4.978  0.0000  0.0000  0.0000
  241MPD2  CA21 3555   3.329  -0.384   5.014  0.0000  0.0000  0.0000
  241MPD2  HA22 3556   3.029  -0.327   5.148  0.0000  0.0000  0.0000
  241MPD2  HA23 3557   3.176  -0.681   4.969  0.0000  0.0000  0.0000
  241MPD2  HA24 3558   3.401  -0.564   4.930  0.0000  0.0000  0.0000
  241MPD2  HA25 3559   3.426  -0.337   4.997  0.0000  0.0000  0.0000
  241MPD2  HN26 3560   3.229  -0.181   5.237  0.0000  0.0000  0.0000
  241MPD2  HN27 3561   2.968  -0.679   5.032  0.0000  0.0000  0.0000
  241MPD2  NB28 3562   3.248  -0.186   5.138  0.0000  0.0000  0.0000
  241MPD2  NB29 3563   2.978  -0.596   5.090  0.0000  0.0000  0.0000
  242MPD2  CA16 3564   2.871  -0.024   4.799  0.0000  0.0000  0.0000
  242MPD2  CA17 3565   2.909  -0.153   4.787  0.0000  0.0000  0.0000
  242MPD2  CA18 3566   2.850  -0.255   4.853  0.0000  0.0000  0.0000
  242MPD2  CA19 3567   2.744  -0.221   4.945  0.0000  0.0000  0.0000
  242MPD2  CA20 3568   2.719  -0.083   4.964  0.0000  0.0000  0.0000
  242MPD2  CA21 3569   2.786   0.014   4.897  0.0000  0.0000  0.0000
  242MPD2  HA22 3570   2.984  -0.175   4.711  0.0000  0.0000  0.0000
  242MPD2  HA23 3571   2.693  -0.297   5.003  0.0000  0.0000  0.0000
  242MPD2  HA24 3572   2.635  -0.057   5.027  0.0000  0.0000  0.0000
  242MPD2  HA25 3573   2.762   0.118   4.917  0.0000  0.0000  0.0000
  242MPD2  HN26 3574   3.042   0.042   4.698  0.0000  0.0000  0.0000
  242MPD2  HN27 3575   2.959  -0.421   4.874  0.0000  0.0000  0.0000
  242MPD2  NB28 3576   2.948   0.069   4.725  0.0000  0.0000  0.0000
  242MPD2  NB29 3577   2.884  -0.384   4.818  0.0000  0.0000  0.0000
  243MPD1   CA1 3578   2.439  -0.512   5.441  0.0000  0.0000  0.0000
  243MPD1   CA2 3579   2.436  -0.415   5.337  0.0000  0.0000  0.0000
  243MPD1   CA3 3580   2.496  -0.288   5.349  0.0000  0.0000  0.0000
  243MPD1   CA4 3581   2.561  -0.263   5.471  0.0000  0.0000  0.0000
  243MPD1   CA5 3582   2.572  -0.363   5.568  0.0000  0.0000  0.0000
  243MPD1   CA6 3583   2.502  -0.483   5.558  0.0000  0.0000  0.0000
  243MPD1  HA10 3584   2.507  -0.553   5.641  0.0000  0.0000  0.0000
  243MPD1   HA7 3585   2.387  -0.437   5.243  0.0000  0.0000  0.0000
  243MPD1   HA8 3586   2.615  -0.169   5.483  0.0000  0.0000  0.0000
  243MPD1   HA9 3587   2.626  -0.339   5.658  0.0000  0.0000  0.0000
  243MPD1  HN11 3588   2.301  -0.668   5.455  0.0000  0.0000  0.0000
  243MPD1  HN12 3589   2.448  -0.219   5.162  0.0000  0.0000  0.0000
  243MPD1  HN13 3590   2.525  -0.103   5.259  0.0000  0.0000  0.0000
  243MPD1  NB14 3591   2.389  -0.642   5.413  0.0000  0.0000  0.0000
  243MPD1  NH15 3592   2.511  -0.201   5.239  0.0000  0.0000  0.0000
  244MPD2  CA16 3593   4.252  -0.014   5.767  0.0000  0.0000  0.0000
  244MPD2  CA17 3594   4.318   0.067   5.667  0.0000  0.0000  0.0000
  244MPD2  CA18 3595   4.456   0.085   5.684  0.0000  0.0000  0.0000
  244MPD2  CA19 3596   4.522   0.024   5.791  0.0000  0.0000  0.0000
  244MPD2  CA20 3597   4.458  -0.055   5.886  0.0000  0.0000  0.0000
  244MPD2  CA21 3598   4.322  -0.066   5.877  0.0000  0.0000  0.0000
  244MPD2  HA22 3599   4.264   0.113   5.585  0.0000  0.0000  0.0000
  244MPD2  HA23 3600   4.629   0.043   5.801  0.0000  0.0000  0.0000
  244MPD2  HA24 3601   4.520  -0.098   5.965  0.0000  0.0000  0.0000
  244MPD2  HA25 3602   4.287  -0.137   5.951  0.0000  0.0000  0.0000
  244MPD2  HN26 3603   4.053   0.036   5.752  0.0000  0.0000  0.0000
  244MPD2  HN27 3604   4.525   0.138   5.480  0.0000  0.0000  0.0000
  244MPD2  NB28 3605   4.115  -0.044   5.756  0.0000  0.0000  0.0000
  244MPD2  NB29 3606   4.532   0.160   5.579  0.0000  0.0000  0.0000
  245MPD1   CA1 3607   3.617   0.295   5.941  0.0000  0.0000  0.0000
  245MPD1   CA2 3608   3.523   0.339   5.845  0.0000  0.0000  0.0000
  245MPD1   CA3 3609   3.464   0.469   5.853  0.0000  0.0000  0.0000
  245MPD1   CA4 3610   3.502   0.555   5.953  0.0000  0.0000  0.0000
  245MPD1   CA5 3611   3.592   0.513   6.046  0.0000  0.0000  0.0000
  245MPD1   CA6 3612   3.651   0.384   6.036  0.0000  0.0000  0.0000
  245MPD1  HA10 3613   3.730   0.362   6.107  0.0000  0.0000  0.0000
  245MPD1   HA7 3614   3.500   0.280   5.757  0.0000  0.0000  0.0000
  245MPD1   HA8 3615   3.464   0.655   5.968  0.0000  0.0000  0.0000
  245MPD1   HA9 3616   3.612   0.566   6.139  0.0000  0.0000  0.0000
  245MPD1  HN11 3617   3.781   0.170   5.933  0.0000  0.0000  0.0000
  245MPD1  HN12 3618   3.352   0.453   5.686  0.0000  0.0000  0.0000
  245MPD1  HN13 3619   3.288   0.564   5.790  0.0000  0.0000  0.0000
  245MPD1  NB14 3620   3.681   0.170   5.919  0.0000  0.0000  0.0000
  245MPD1  NH15 3621   3.372   0.514   5.764  0.0000  0.0000  0.0000
  246MPD1   CA1 3622   0.728   1.072   5.455  0.0000  0.0000  0.0000
  246MPD1   CA2 3623   0.623   1.078   5.553  0.0000  0.0000  0.0000
  246MPD1   CA3 3624   0.509   1.150   5.510  0.0000  0.0000  0.0000
  246MPD1   CA4 3625   0.487   1.202   5.386  0.0000  0.0000  0.0000
  246MPD1   CA5 3626   0.588   1.184   5.286  0.0000  0.0000  0.0000
  246MPD1   CA6 3627   0.711   1.129   5.323  0.0000  0.0000  0.0000
  246MPD1  HA10 3628   0.787   1.110   5.247  0.0000  0.0000  0.0000
  246MPD1   HA7 3629   0.633   1.031   5.650  0.0000  0.0000  0.0000
  246MPD1   HA8 3630   0.400   1.262   5.360  0.0000  0.0000  0.0000
  246MPD1   HA9 3631   0.593   1.224   5.185  0.0000  0.0000  0.0000
  246MPD1  HN11 3632   0.836   0.923   5.553  0.0000  0.0000  0.0000
  246MPD1  HN12 3633   0.412   1.114   5.694  0.0000  0.0000  0.0000
  246MPD1  HN13 3634   0.309   1.145   5.567  0.0000  0.0000  0.0000
  246MPD1  NB14 3635   0.848   1.002   5.490  0.0000  0.0000  0.0000
  246MPD1  NH15 3636   0.401   1.161   5.605  0.0000  0.0000  0.0000
  247MPD2  CA16 3637   4.479  -0.780   4.221  0.0000  0.0000  0.0000
  247MPD2  CA17 3638   4.389  -0.888   4.259  0.0000  0.0000  0.0000
  247MPD2  CA18 3639   4.430  -1.026   4.249  0.0000  0.0000  0.0000
  247MPD2  CA19 3640   4.563  -1.052   4.207  0.0000  0.0000  0.0000
  247MPD2  CA20 3641   4.648  -0.951   4.172  0.0000  0.0000  0.0000
  247MPD2  CA21 3642   4.616  -0.816   4.187  0.0000  0.0000  0.0000
  247MPD2  HA22 3643   4.285  -0.862   4.276  0.0000  0.0000  0.0000
  247MPD2  HA23 3644   4.596  -1.149   4.170  0.0000  0.0000  0.0000
  247MPD2  HA24 3645   4.745  -0.988   4.138  0.0000  0.0000  0.0000
  247MPD2  HA25 3646   4.690  -0.739   4.167  0.0000  0.0000  0.0000
  247MPD2  HN26 3647   4.375  -0.617   4.298  0.0000  0.0000  0.0000
  247MPD2  HN27 3648   4.261  -1.125   4.329  0.0000  0.0000  0.0000
  247MPD2  NB28 3649   4.438  -0.646   4.224  0.0000  0.0000  0.0000
  247MPD2  NB29 3650   4.336  -1.133   4.262  0.0000  0.0000  0.0000
  248MPD2  CA16 3651   3.399  -1.954   5.849  0.0000  0.0000  0.0000
  248MPD2  CA17 3652   3.288  -1.875   5.811  0.0000  0.0000  0.0000
  248MPD2  CA18 3653   3.224  -1.797   5.903  0.0000  0.0000  0.0000
  248MPD2  CA19 3654   3.283  -1.785   6.029  0.0000  0.0000  0.0000
  248MPD2  CA20 3655   3.401  -1.853   6.068  0.0000  0.0000  0.0000
  248MPD2  CA21 3656   3.455  -1.943   5.980  0.0000  0.0000  0.0000
  248MPD2  HA22 3657   3.245  -1.882   5.712  0.0000  0.0000  0.0000
  248MPD2  HA23 3658   3.233  -1.718   6.099  0.0000  0.0000  0.0000
  248MPD2  HA24 3659   3.440  -1.844   6.168  0.0000  0.0000  0.0000
  248MPD2  HA25 3660   3.552  -1.988   6.001  0.0000  0.0000  0.0000
  248MPD2  HN26 3661   3.404  -2.092   5.696  0.0000  0.0000  0.0000
  248MPD2  HN27 3662   3.018  -1.780   5.884  0.0000  0.0000  0.0000
  248MPD2  NB28 3663   3.466  -2.037   5.754  0.0000  0.0000  0.0000
  248MPD2  NB29 3664   3.100  -1.721   5.875  0.0000  0.0000  0.0000
  249MPD2  CA16 3665   5.026  -1.313   5.276  0.0000  0.0000  0.0000
  249MPD2  CA17 3666   4.977  -1.363   5.395  0.0000  0.0000  0.0000
  249MPD2  CA18 3667   4.962  -1.294   5.514  0.0000  0.0000  0.0000
  249MPD2  CA19 3668   5.007  -1.160   5.507  0.0000  0.0000  0.0000
  249MPD2  CA20 3669   5.064  -1.105   5.387  0.0000  0.0000  0.0000
  249MPD2  CA21 3670   5.072  -1.180   5.270  0.0000  0.0000  0.0000
  249MPD2  HA22 3671   4.934  -1.462   5.386  0.0000  0.0000  0.0000
  249MPD2  HA23 3672   4.985  -1.091   5.588  0.0000  0.0000  0.0000
  249MPD2  HA24 3673   5.089  -0.999   5.387  0.0000  0.0000  0.0000
  249MPD2  HA25 3674   5.108  -1.127   5.182  0.0000  0.0000  0.0000
  249MPD2  HN26 3675   4.965  -1.469   5.153  0.0000  0.0000  0.0000
  249MPD2  HN27 3676   4.944  -1.384   5.699  0.0000  0.0000  0.0000
  249MPD2  NB28 3677   5.029  -1.391   5.155  0.0000  0.0000  0.0000
  249MPD2  NB29 3678   4.886  -1.344   5.626  0.0000  0.0000  0.0000
  250MPD2  CA16 3679   1.692   0.921   5.429  0.0000  0.0000  0.0000
  250MPD2  CA17 3680   1.741   0.890   5.300  0.0000  0.0000  0.0000
  250MPD2  CA18 3681   1.876   0.911   5.267  0.0000  0.0000  0.0000
  250MPD2  CA19 3682   1.954   0.985   5.354  0.0000  0.0000  0.0000
  250MPD2  CA20 3683   1.899   1.026   5.474  0.0000  0.0000  0.0000
  250MPD2  CA21 3684   1.774   0.988   5.517  0.0000  0.0000  0.0000
  250MPD2  HA22 3685   1.678   0.849   5.222  0.0000  0.0000  0.0000
  250MPD2  HA23 3686   2.059   1.001   5.329  0.0000  0.0000  0.0000
  250MPD2  HA24 3687   1.952   1.084   5.550  0.0000  0.0000  0.0000
  250MPD2  HA25 3688   1.746   1.009   5.620  0.0000  0.0000  0.0000
  250MPD2  HN26 3689   1.551   0.858   5.565  0.0000  0.0000  0.0000
  250MPD2  HN27 3690   1.850   0.840   5.076  0.0000  0.0000  0.0000
  250MPD2  NB28 3691   1.558   0.893   5.471  0.0000  0.0000  0.0000
  250MPD2  NB29 3692   1.921   0.853   5.147  0.0000  0.0000  0.0000
  251MPD2  CA16 3693   2.375  -1.045   4.509  0.0000  0.0000  0.0000
  251MPD2  CA17 3694   2.399  -1.013   4.644  0.0000  0.0000  0.0000
  251MPD2  CA18 3695   2.438  -0.879   4.674  0.0000  0.0000  0.0000
  251MPD2  CA19 3696   2.440  -0.783   4.573  0.0000  0.0000  0.0000
  251MPD2  CA20 3697   2.424  -0.820   4.442  0.0000  0.0000  0.0000
  251MPD2  CA21 3698   2.399  -0.951   4.400  0.0000  0.0000  0.0000
  251MPD2  HA22 3699   2.410  -1.094   4.717  0.0000  0.0000  0.0000
  251MPD2  HA23 3700   2.451  -0.678   4.598  0.0000  0.0000  0.0000
  251MPD2  HA24 3701   2.467  -0.752   4.369  0.0000  0.0000  0.0000
  251MPD2  HA25 3702   2.389  -0.978   4.295  0.0000  0.0000  0.0000
  251MPD2  HN26 3703   2.436  -1.235   4.478  0.0000  0.0000  0.0000
  251MPD2  HN27 3704   2.385  -0.794   4.862  0.0000  0.0000  0.0000
  251MPD2  NB28 3705   2.352  -1.178   4.478  0.0000  0.0000  0.0000
  251MPD2  NB29 3706   2.459  -0.837   4.809  0.0000  0.0000  0.0000
  252MPD2  CA16 3707   3.340  -0.499   4.521  0.0000  0.0000  0.0000
  252MPD2  CA17 3708   3.388  -0.532   4.395  0.0000  0.0000  0.0000
  252MPD2  CA18 3709   3.364  -0.461   4.277  0.0000  0.0000  0.0000
  252MPD2  CA19 3710   3.292  -0.345   4.290  0.0000  0.0000  0.0000
  252MPD2  CA20 3711   3.233  -0.309   4.415  0.0000  0.0000  0.0000
  252MPD2  CA21 3712   3.258  -0.385   4.528  0.0000  0.0000  0.0000
  252MPD2  HA22 3713   3.455  -0.617   4.377  0.0000  0.0000  0.0000
  252MPD2  HA23 3714   3.259  -0.289   4.203  0.0000  0.0000  0.0000
  252MPD2  HA24 3715   3.169  -0.221   4.421  0.0000  0.0000  0.0000
  252MPD2  HA25 3716   3.227  -0.346   4.625  0.0000  0.0000  0.0000
  252MPD2  HN26 3717   3.449  -0.554   4.689  0.0000  0.0000  0.0000
  252MPD2  HN27 3718   3.447  -0.599   4.145  0.0000  0.0000  0.0000
  252MPD2  NB28 3719   3.366  -0.577   4.636  0.0000  0.0000  0.0000
  252MPD2  NB29 3720   3.412  -0.504   4.148  0.0000  0.0000  0.0000
  253MPD2  CA16 3721   2.395   0.058   5.362  0.0000  0.0000  0.0000
  253MPD2  CA17 3722   2.396   0.102   5.231  0.0000  0.0000  0.0000
  253MPD2  CA18 3723   2.508   0.156   5.172  0.0000  0.0000  0.0000
  253MPD2  CA19 3724   2.627   0.145   5.245  0.0000  0.0000  0.0000
  253MPD2  CA20 3725   2.627   0.106   5.377  0.0000  0.0000  0.0000
  253MPD2  CA21 3726   2.507   0.066   5.441  0.0000  0.0000  0.0000
  253MPD2  HA22 3727   2.302   0.092   5.178  0.0000  0.0000  0.0000
  253MPD2  HA23 3728   2.714   0.160   5.181  0.0000  0.0000  0.0000
  253MPD2  HA24 3729   2.724   0.086   5.422  0.0000  0.0000  0.0000
  253MPD2  HA25 3730   2.500   0.025   5.541  0.0000  0.0000  0.0000
  253MPD2  HN26 3731   2.279  -0.079   5.468  0.0000  0.0000  0.0000
  253MPD2  HN27 3732   2.521   0.170   4.964  0.0000  0.0000  0.0000
  253MPD2  NB28 3733   2.270   0.007   5.414  0.0000  0.0000  0.0000
  253MPD2  NB29 3734   2.503   0.222   5.049  0.0000  0.0000  0.0000
  254MPD2  CA16 3735   2.851   0.645   3.449  0.0000  0.0000  0.0000
  254MPD2  CA17 3736   2.983   0.642   3.499  0.0000  0.0000  0.0000
  254MPD2  CA18 3737   3.064   0.527   3.492  0.0000  0.0000  0.0000
  254MPD2  CA19 3738   3.033   0.427   3.397  0.0000  0.0000  0.0000
  254MPD2  CA20 3739   2.913   0.436   3.324  0.0000  0.0000  0.0000
  254MPD2  CA21 3740   2.820   0.542   3.355  0.0000  0.0000  0.0000
  254MPD2  HA22 3741   3.007   0.729   3.560  0.0000  0.0000  0.0000
  254MPD2  HA23 3742   3.089   0.335   3.382  0.0000  0.0000  0.0000
  254MPD2  HA24 3743   2.886   0.368   3.244  0.0000  0.0000  0.0000
  254MPD2  HA25 3744   2.733   0.548   3.290  0.0000  0.0000  0.0000
  254MPD2  HN26 3745   2.670   0.760   3.484  0.0000  0.0000  0.0000
  254MPD2  HN27 3746   3.257   0.466   3.478  0.0000  0.0000  0.0000
  254MPD2  NB28 3747   2.763   0.762   3.445  0.0000  0.0000  0.0000
  254MPD2  NB29 3748   3.194   0.507   3.546  0.0000  0.0000  0.0000
  255MPD2  CA16 3749   0.552  -0.209   4.883  0.0000  0.0000  0.0000
  255MPD2  CA17 3750   0.680  -0.245   4.934  0.0000  0.0000  0.0000
  255MPD2  CA18 3751   0.761  -0.338   4.869  0.0000  0.0000  0.0000
  255MPD2  CA19 3752   0.729  -0.377   4.736  0.0000  0.0000  0.0000
  255MPD2  CA20 3753   0.605  -0.333   4.682  0.0000  0.0000  0.0000
  255MPD2  CA21 3754   0.520  -0.257   4.755  0.0000  0.0000  0.0000
  255MPD2  HA22 3755   0.713  -0.202   5.028  0.0000  0.0000  0.0000
  255MPD2  HA23 3756   0.791  -0.448   4.683  0.0000  0.0000  0.0000
  255MPD2  HA24 3757   0.577  -0.365   4.583  0.0000  0.0000  0.0000
  255MPD2  HA25 3758   0.426  -0.235   4.705  0.0000  0.0000  0.0000
  255MPD2  HN26 3759   0.454  -0.152   5.048  0.0000  0.0000  0.0000
  255MPD2  HN27 3760   0.939  -0.314   4.977  0.0000  0.0000  0.0000
  255MPD2  NB28 3761   0.471  -0.121   4.953  0.0000  0.0000  0.0000
  255MPD2  NB29 3762   0.878  -0.384   4.937  0.0000  0.0000  0.0000
  256MPD2  CA16 3763   4.088   0.279   6.080  0.0000  0.0000  0.0000
  256MPD2  CA17 3764   4.081   0.141   6.064  0.0000  0.0000  0.0000
  256MPD2  CA18 3765   4.123   0.049   6.153  0.0000  0.0000  0.0000
  256MPD2  CA19 3766   4.191   0.089   6.271  0.0000  0.0000  0.0000
  256MPD2  CA20 3767   4.214   0.222   6.282  0.0000  0.0000  0.0000
  256MPD2  CA21 3768   4.159   0.320   6.197  0.0000  0.0000  0.0000
  256MPD2  HA22 3769   4.027   0.098   5.980  0.0000  0.0000  0.0000
  256MPD2  HA23 3770   4.228   0.017   6.344  0.0000  0.0000  0.0000
  256MPD2  HA24 3771   4.247   0.259   6.378  0.0000  0.0000  0.0000
  256MPD2  HA25 3772   4.167   0.427   6.212  0.0000  0.0000  0.0000
  256MPD2  HN26 3773   4.036   0.475   6.035  0.0000  0.0000  0.0000
  256MPD2  HN27 3774   4.159  -0.158   6.150  0.0000  0.0000  0.0000
  256MPD2  NB28 3775   4.027   0.380   6.002  0.0000  0.0000  0.0000
  256MPD2  NB29 3776   4.082  -0.093   6.143  0.0000  0.0000  0.0000
  257MPD1   CA1 3777   4.747  -1.548   4.715  0.0000  0.0000  0.0000
  257MPD1   CA2 3778   4.849  -1.481   4.640  0.0000  0.0000  0.0000
  257MPD1   CA3 3779   4.919  -1.375   4.696  0.0000  0.0000  0.0000
  257MPD1   CA4 3780   4.873  -1.321   4.824  0.0000  0.0000  0.0000
  257MPD1   CA5 3781   4.779  -1.386   4.900  0.0000  0.0000  0.0000
  257MPD1   CA6 3782   4.718  -1.505   4.847  0.0000  0.0000  0.0000
  257MPD1  HA10 3783   4.647  -1.554   4.913  0.0000  0.0000  0.0000
  257MPD1   HA7 3784   4.886  -1.516   4.544  0.0000  0.0000  0.0000
  257MPD1   HA8 3785   4.913  -1.225   4.854  0.0000  0.0000  0.0000
  257MPD1   HA9 3786   4.756  -1.335   4.993  0.0000  0.0000  0.0000
  257MPD1  HN11 3787   4.750  -1.700   4.577  0.0000  0.0000  0.0000
  257MPD1  HN12 3788   4.994  -1.298   4.523  0.0000  0.0000  0.0000
  257MPD1  HN13 3789   5.030  -1.219   4.664  0.0000  0.0000  0.0000
  257MPD1  NB14 3790   4.697  -1.669   4.657  0.0000  0.0000  0.0000
  257MPD1  NH15 3791   5.016  -1.309   4.621  0.0000  0.0000  0.0000
  258MPD2  CA16 3792   1.485  -0.435   5.846  0.0000  0.0000  0.0000
  258MPD2  CA17 3793   1.397  -0.407   5.952  0.0000  0.0000  0.0000
  258MPD2  CA18 3794   1.330  -0.280   5.959  0.0000  0.0000  0.0000
  258MPD2  CA19 3795   1.355  -0.181   5.863  0.0000  0.0000  0.0000
  258MPD2  CA20 3796   1.436  -0.211   5.754  0.0000  0.0000  0.0000
  258MPD2  CA21 3797   1.499  -0.340   5.746  0.0000  0.0000  0.0000
  258MPD2  HA22 3798   1.387  -0.481   6.031  0.0000  0.0000  0.0000
  258MPD2  HA23 3799   1.310  -0.084   5.884  0.0000  0.0000  0.0000
  258MPD2  HA24 3800   1.450  -0.136   5.676  0.0000  0.0000  0.0000
  258MPD2  HA25 3801   1.567  -0.360   5.665  0.0000  0.0000  0.0000
  258MPD2  HN26 3802   1.498  -0.636   5.871  0.0000  0.0000  0.0000
  258MPD2  HN27 3803   1.290  -0.245   6.160  0.0000  0.0000  0.0000
  258MPD2  NB28 3804   1.553  -0.556   5.841  0.0000  0.0000  0.0000
  258MPD2  NB29 3805   1.245  -0.248   6.070  0.0000  0.0000  0.0000
  259MPD2  CA16 3806   3.696  -1.406   4.496  0.0000  0.0000  0.0000
  259MPD2  CA17 3807   3.579  -1.444   4.428  0.0000  0.0000  0.0000
  259MPD2  CA18 3808   3.452  -1.394   4.467  0.0000  0.0000  0.0000
  259MPD2  CA19 3809   3.443  -1.305   4.574  0.0000  0.0000  0.0000
  259MPD2  CA20 3810   3.552  -1.273   4.654  0.0000  0.0000  0.0000
  259MPD2  CA21 3811   3.676  -1.322   4.614  0.0000  0.0000  0.0000
  259MPD2  HA22 3812   3.587  -1.518   4.349  0.0000  0.0000  0.0000
  259MPD2  HA23 3813   3.346  -1.260   4.596  0.0000  0.0000  0.0000
  259MPD2  HA24 3814   3.552  -1.206   4.740  0.0000  0.0000  0.0000
  259MPD2  HA25 3815   3.760  -1.284   4.672  0.0000  0.0000  0.0000
  259MPD2  HN26 3816   3.833  -1.467   4.341  0.0000  0.0000  0.0000
  259MPD2  HN27 3817   3.266  -1.351   4.384  0.0000  0.0000  0.0000
  259MPD2  NB28 3818   3.826  -1.441   4.439  0.0000  0.0000  0.0000
  259MPD2  NB29 3819   3.333  -1.426   4.393  0.0000  0.0000  0.0000
  260MPD2  CA16 3820   4.884  -1.076   4.401  0.0000  0.0000  0.0000
  260MPD2  CA17 3821   4.778  -1.125   4.477  0.0000  0.0000  0.0000
  260MPD2  CA18 3822   4.717  -1.248   4.446  0.0000  0.0000  0.0000
  260MPD2  CA19 3823   4.773  -1.327   4.341  0.0000  0.0000  0.0000
  260MPD2  CA20 3824   4.891  -1.283   4.284  0.0000  0.0000  0.0000
  260MPD2  CA21 3825   4.939  -1.157   4.300  0.0000  0.0000  0.0000
  260MPD2  HA22 3826   4.730  -1.063   4.551  0.0000  0.0000  0.0000
  260MPD2  HA23 3827   4.728  -1.422   4.311  0.0000  0.0000  0.0000
  260MPD2  HA24 3828   4.941  -1.347   4.212  0.0000  0.0000  0.0000
  260MPD2  HA25 3829   5.025  -1.134   4.236  0.0000  0.0000  0.0000
  260MPD2  HN26 3830   4.932  -0.877   4.350  0.0000  0.0000  0.0000
  260MPD2  HN27 3831   4.595  -1.239   4.611  0.0000  0.0000  0.0000
  260MPD2  NB28 3832   4.940  -0.947   4.423  0.0000  0.0000  0.0000
  260MPD2  NB29 3833   4.606  -1.286   4.522  0.0000  0.0000  0.0000
  261MPD2  CA16 3834   2.608  -0.087   3.414  0.0000  0.0000  0.0000
  261MPD2  CA17 3835   2.748  -0.113   3.393  0.0000  0.0000  0.0000
  261MPD2  CA18 3836   2.841  -0.010   3.390  0.0000  0.0000  0.0000
  261MPD2  CA19 3837   2.801   0.122   3.409  0.0000  0.0000  0.0000
  261MPD2  CA20 3838   2.665   0.151   3.412  0.0000  0.0000  0.0000
  261MPD2  CA21 3839   2.572   0.049   3.415  0.0000  0.0000  0.0000
  261MPD2  HA22 3840   2.778  -0.215   3.372  0.0000  0.0000  0.0000
  261MPD2  HA23 3841   2.873   0.204   3.406  0.0000  0.0000  0.0000
  261MPD2  HA24 3842   2.632   0.254   3.423  0.0000  0.0000  0.0000
  261MPD2  HA25 3843   2.469   0.085   3.422  0.0000  0.0000  0.0000
  261MPD2  HN26 3844   2.529  -0.266   3.335  0.0000  0.0000  0.0000
  261MPD2  HN27 3845   3.030   0.056   3.402  0.0000  0.0000  0.0000
  261MPD2  NB28 3846   2.507  -0.190   3.398  0.0000  0.0000  0.0000
  261MPD2  NB29 3847   2.982  -0.029   3.376  0.0000  0.0000  0.0000
  262MPD2  CA16 3848   2.394  -1.228   6.044  0.0000  0.0000  0.0000
  262MPD2  CA17 3849   2.298  -1.151   5.980  0.0000  0.0000  0.0000
  262MPD2  CA18 3850   2.235  -1.033   6.036  0.0000  0.0000  0.0000
  262MPD2  CA19 3851   2.268  -0.998   6.164  0.0000  0.0000  0.0000
  262MPD2  CA20 3852   2.356  -1.080   6.234  0.0000  0.0000  0.0000
  262MPD2  CA21 3853   2.418  -1.192   6.178  0.0000  0.0000  0.0000
  262MPD2  HA22 3854   2.271  -1.188   5.882  0.0000  0.0000  0.0000
  262MPD2  HA23 3855   2.219  -0.914   6.211  0.0000  0.0000  0.0000
  262MPD2  HA24 3856   2.378  -1.060   6.339  0.0000  0.0000  0.0000
  262MPD2  HA25 3857   2.483  -1.246   6.246  0.0000  0.0000  0.0000
  262MPD2  HN26 3858   2.389  -1.413   5.962  0.0000  0.0000  0.0000
  262MPD2  HN27 3859   2.089  -1.040   5.889  0.0000  0.0000  0.0000
  262MPD2  NB28 3860   2.454  -1.337   5.981  0.0000  0.0000  0.0000
  262MPD2  NB29 3861   2.126  -0.981   5.963  0.0000  0.0000  0.0000
  263MPD2  CA16 3862   1.758  -0.601   3.518  0.0000  0.0000  0.0000
  263MPD2  CA17 3863   1.676  -0.542   3.609  0.0000  0.0000  0.0000
  263MPD2  CA18 3864   1.559  -0.599   3.664  0.0000  0.0000  0.0000
  263MPD2  CA19 3865   1.526  -0.731   3.619  0.0000  0.0000  0.0000
  263MPD2  CA20 3866   1.603  -0.791   3.515  0.0000  0.0000  0.0000
  263MPD2  CA21 3867   1.710  -0.715   3.458  0.0000  0.0000  0.0000
  263MPD2  HA22 3868   1.703  -0.446   3.653  0.0000  0.0000  0.0000
  263MPD2  HA23 3869   1.445  -0.783   3.668  0.0000  0.0000  0.0000
  263MPD2  HA24 3870   1.577  -0.886   3.470  0.0000  0.0000  0.0000
  263MPD2  HA25 3871   1.770  -0.763   3.381  0.0000  0.0000  0.0000
  263MPD2  HN26 3872   1.925  -0.606   3.398  0.0000  0.0000  0.0000
  263MPD2  HN27 3873   1.381  -0.524   3.734  0.0000  0.0000  0.0000
  263MPD2  NB28 3874   1.878  -0.548   3.466  0.0000  0.0000  0.0000
  263MPD2  NB29 3875   1.476  -0.543   3.766  0.0000  0.0000  0.0000
  264MPD2  CA16 3876   4.285  -2.231   4.475  0.0000  0.0000  0.0000
  264MPD2  CA17 3877   4.162  -2.167   4.474  0.0000  0.0000  0.0000
  264MPD2  CA18 3878   4.110  -2.119   4.353  0.0000  0.0000  0.0000
  264MPD2  CA19 3879   4.175  -2.143   4.237  0.0000  0.0000  0.0000
  264MPD2  CA20 3880   4.294  -2.220   4.235  0.0000  0.0000  0.0000
  264MPD2  CA21 3881   4.343  -2.271   4.354  0.0000  0.0000  0.0000
  264MPD2  HA22 3882   4.109  -2.150   4.567  0.0000  0.0000  0.0000
  264MPD2  HA23 3883   4.127  -2.123   4.142  0.0000  0.0000  0.0000
  264MPD2  HA24 3884   4.343  -2.238   4.140  0.0000  0.0000  0.0000
  264MPD2  HA25 3885   4.428  -2.339   4.352  0.0000  0.0000  0.0000
  264MPD2  HN26 3886   4.307  -2.378   4.620  0.0000  0.0000  0.0000
  264MPD2  HN27 3887   3.995  -1.979   4.282  0.0000  0.0000  0.0000
  264MPD2  NB28 3888   4.345  -2.288   4.592  0.0000  0.0000  0.0000
  264MPD2  NB29 3889   3.988  -2.057   4.346  0.0000  0.0000  0.0000
  265MPD2  CA16 3890   3.389  -0.940   6.043  0.0000  0.0000  0.0000
  265MPD2  CA17 3891   3.494  -0.850   6.016  0.0000  0.0000  0.0000
  265MPD2  CA18 3892   3.493  -0.717   6.070  0.0000  0.0000  0.0000
  265MPD2  CA19 3893   3.386  -0.677   6.146  0.0000  0.0000  0.0000
  265MPD2  CA20 3894   3.278  -0.770   6.174  0.0000  0.0000  0.0000
  265MPD2  CA21 3895   3.281  -0.894   6.121  0.0000  0.0000  0.0000
  265MPD2  HA22 3896   3.585  -0.873   5.960  0.0000  0.0000  0.0000
  265MPD2  HA23 3897   3.369  -0.578   6.186  0.0000  0.0000  0.0000
  265MPD2  HA24 3898   3.194  -0.747   6.239  0.0000  0.0000  0.0000
  265MPD2  HA25 3899   3.197  -0.960   6.146  0.0000  0.0000  0.0000
  265MPD2  HN26 3900   3.473  -1.100   5.941  0.0000  0.0000  0.0000
  265MPD2  HN27 3901   3.669  -0.656   5.962  0.0000  0.0000  0.0000
  265MPD2  NB28 3902   3.384  -1.062   5.971  0.0000  0.0000  0.0000
  265MPD2  NB29 3903   3.603  -0.627   6.033  0.0000  0.0000  0.0000
  266MPD2  CA16 3904   2.676  -1.656   5.288  0.0000  0.0000  0.0000
  266MPD2  CA17 3905   2.548  -1.703   5.310  0.0000  0.0000  0.0000
  266MPD2  CA18 3906   2.440  -1.619   5.330  0.0000  0.0000  0.0000
  266MPD2  CA19 3907   2.456  -1.486   5.359  0.0000  0.0000  0.0000
  266MPD2  CA20 3908   2.590  -1.438   5.341  0.0000  0.0000  0.0000
  266MPD2  CA21 3909   2.692  -1.516   5.291  0.0000  0.0000  0.0000
  266MPD2  HA22 3910   2.519  -1.808   5.308  0.0000  0.0000  0.0000
  266MPD2  HA23 3911   2.373  -1.429   5.398  0.0000  0.0000  0.0000
  266MPD2  HA24 3912   2.605  -1.332   5.356  0.0000  0.0000  0.0000
  266MPD2  HA25 3913   2.789  -1.470   5.275  0.0000  0.0000  0.0000
  266MPD2  HN26 3914   2.751  -1.835   5.223  0.0000  0.0000  0.0000
  266MPD2  HN27 3915   2.282  -1.703   5.431  0.0000  0.0000  0.0000
  266MPD2  NB28 3916   2.783  -1.746   5.259  0.0000  0.0000  0.0000
  266MPD2  NB29 3917   2.303  -1.668   5.339  0.0000  0.0000  0.0000
  267MPD2  CA16 3918   4.602   0.346   5.069  0.0000  0.0000  0.0000
  267MPD2  CA17 3919   4.566   0.211   5.045  0.0000  0.0000  0.0000
  267MPD2  CA18 3920   4.618   0.142   4.936  0.0000  0.0000  0.0000
  267MPD2  CA19 3921   4.704   0.208   4.845  0.0000  0.0000  0.0000
  267MPD2  CA20 3922   4.732   0.345   4.860  0.0000  0.0000  0.0000
  267MPD2  CA21 3923   4.680   0.413   4.971  0.0000  0.0000  0.0000
  267MPD2  HA22 3924   4.497   0.160   5.111  0.0000  0.0000  0.0000
  267MPD2  HA23 3925   4.765   0.157   4.770  0.0000  0.0000  0.0000
  267MPD2  HA24 3926   4.807   0.387   4.793  0.0000  0.0000  0.0000
  267MPD2  HA25 3927   4.713   0.516   4.980  0.0000  0.0000  0.0000
  267MPD2  HN26 3928   4.631   0.500   5.200  0.0000  0.0000  0.0000
  267MPD2  HN27 3929   4.487  -0.026   4.944  0.0000  0.0000  0.0000
  267MPD2  NB28 3930   4.566   0.426   5.177  0.0000  0.0000  0.0000
  267MPD2  NB29 3931   4.580   0.001   4.915  0.0000  0.0000  0.0000
  268MPD2  CA16 3932   3.009  -2.282   4.518  0.0000  0.0000  0.0000
  268MPD2  CA17 3933   3.126  -2.212   4.485  0.0000  0.0000  0.0000
  268MPD2  CA18 3934   3.224  -2.273   4.398  0.0000  0.0000  0.0000
  268MPD2  CA19 3935   3.192  -2.402   4.343  0.0000  0.0000  0.0000
  268MPD2  CA20 3936   3.073  -2.464   4.370  0.0000  0.0000  0.0000
  268MPD2  CA21 3937   2.980  -2.407   4.457  0.0000  0.0000  0.0000
  268MPD2  HA22 3938   3.147  -2.115   4.530  0.0000  0.0000  0.0000
  268MPD2  HA23 3939   3.269  -2.453   4.285  0.0000  0.0000  0.0000
  268MPD2  HA24 3940   3.045  -2.558   4.324  0.0000  0.0000  0.0000
  268MPD2  HA25 3941   2.883  -2.456   4.472  0.0000  0.0000  0.0000
  268MPD2  HN26 3942   2.976  -2.229   4.708  0.0000  0.0000  0.0000
  268MPD2  HN27 3943   3.430  -2.272   4.387  0.0000  0.0000  0.0000
  268MPD2  NB28 3944   2.928  -2.226   4.619  0.0000  0.0000  0.0000
  268MPD2  NB29 3945   3.353  -2.210   4.366  0.0000  0.0000  0.0000
  269MPD2  CA16 3946   3.947   1.218   5.138  0.0000  0.0000  0.0000
  269MPD2  CA17 3947   3.839   1.130   5.129  0.0000  0.0000  0.0000
  269MPD2  CA18 3948   3.856   0.994   5.097  0.0000  0.0000  0.0000
  269MPD2  CA19 3949   3.986   0.946   5.078  0.0000  0.0000  0.0000
  269MPD2  CA20 3950   4.095   1.034   5.098  0.0000  0.0000  0.0000
  269MPD2  CA21 3951   4.078   1.168   5.131  0.0000  0.0000  0.0000
  269MPD2  HA22 3952   3.741   1.174   5.143  0.0000  0.0000  0.0000
  269MPD2  HA23 3953   4.001   0.842   5.050  0.0000  0.0000  0.0000
  269MPD2  HA24 3954   4.197   0.997   5.085  0.0000  0.0000  0.0000
  269MPD2  HA25 3955   4.158   1.241   5.133  0.0000  0.0000  0.0000
  269MPD2  HN26 3956   3.942   1.398   5.233  0.0000  0.0000  0.0000
  269MPD2  HN27 3957   3.773   0.808   5.062  0.0000  0.0000  0.0000
  269MPD2  NB28 3958   3.911   1.352   5.148  0.0000  0.0000  0.0000
  269MPD2  NB29 3959   3.748   0.900   5.097  0.0000  0.0000  0.0000
  270MPD2  CA16 3960   2.733  -1.092   4.499  0.0000  0.0000  0.0000
  270MPD2  CA17 3961   2.737  -1.193   4.598  0.0000  0.0000  0.0000
  270MPD2  CA18 3962   2.705  -1.324   4.562  0.0000  0.0000  0.0000
  270MPD2  CA19 3963   2.662  -1.356   4.435  0.0000  0.0000  0.0000
  270MPD2  CA20 3964   2.658  -1.255   4.340  0.0000  0.0000  0.0000
  270MPD2  CA21 3965   2.689  -1.120   4.370  0.0000  0.0000  0.0000
  270MPD2  HA22 3966   2.768  -1.177   4.701  0.0000  0.0000  0.0000
  270MPD2  HA23 3967   2.641  -1.460   4.410  0.0000  0.0000  0.0000
  270MPD2  HA24 3968   2.617  -1.284   4.243  0.0000  0.0000  0.0000
  270MPD2  HA25 3969   2.676  -1.037   4.302  0.0000  0.0000  0.0000
  270MPD2  HN26 3970   2.723  -0.915   4.605  0.0000  0.0000  0.0000
  270MPD2  HN27 3971   2.631  -1.494   4.655  0.0000  0.0000  0.0000
  270MPD2  NB28 3972   2.773  -0.960   4.529  0.0000  0.0000  0.0000
  270MPD2  NB29 3973   2.715  -1.437   4.649  0.0000  0.0000  0.0000
  271MPD1   CA1 3974   1.398  -1.016   5.210  0.0000  0.0000  0.0000
  271MPD1   CA2 3975   1.424  -1.072   5.338  0.0000  0.0000  0.0000
  271MPD1   CA3 3976   1.500  -1.188   5.347  0.0000  0.0000  0.0000
  271MPD1   CA4 3977   1.552  -1.248   5.234  0.0000  0.0000  0.0000
  271MPD1   CA5 3978   1.528  -1.186   5.108  0.0000  0.0000  0.0000
  271MPD1   CA6 3979   1.453  -1.071   5.094  0.0000  0.0000  0.0000
  271MPD1  HA10 3980   1.439  -1.021   4.999  0.0000  0.0000  0.0000
  271MPD1   HA7 3981   1.386  -1.015   5.422  0.0000  0.0000  0.0000
  271MPD1   HA8 3982   1.605  -1.343   5.233  0.0000  0.0000  0.0000
  271MPD1   HA9 3983   1.569  -1.236   5.021  0.0000  0.0000  0.0000
  271MPD1  HN11 3984   1.366  -0.815   5.282  0.0000  0.0000  0.0000
  271MPD1  HN12 3985   1.492  -1.200   5.537  0.0000  0.0000  0.0000
  271MPD1  HN13 3986   1.594  -1.305   5.475  0.0000  0.0000  0.0000
  271MPD1  NB14 3987   1.333  -0.884   5.217  0.0000  0.0000  0.0000
  271MPD1  NH15 3988   1.503  -1.264   5.459  0.0000  0.0000  0.0000
  272MPD2  CA16 3989   2.853  -1.216   4.009  0.0000  0.0000  0.0000
  272MPD2  CA17 3990   2.860  -1.076   4.023  0.0000  0.0000  0.0000
  272MPD2  CA18 3991   2.825  -0.994   3.913  0.0000  0.0000  0.0000
  272MPD2  CA19 3992   2.773  -1.050   3.800  0.0000  0.0000  0.0000
  272MPD2  CA20 3993   2.768  -1.188   3.784  0.0000  0.0000  0.0000
  272MPD2  CA21 3994   2.805  -1.274   3.893  0.0000  0.0000  0.0000
  272MPD2  HA22 3995   2.893  -1.041   4.121  0.0000  0.0000  0.0000
  272MPD2  HA23 3996   2.735  -0.992   3.717  0.0000  0.0000  0.0000
  272MPD2  HA24 3997   2.738  -1.239   3.693  0.0000  0.0000  0.0000
  272MPD2  HA25 3998   2.803  -1.382   3.876  0.0000  0.0000  0.0000
  272MPD2  HN26 3999   2.967  -1.252   4.173  0.0000  0.0000  0.0000
  272MPD2  HN27 4000   2.931  -0.821   3.903  0.0000  0.0000  0.0000
  272MPD2  NB28 4001   2.911  -1.302   4.106  0.0000  0.0000  0.0000
  272MPD2  NB29 4002   2.837  -0.851   3.922  0.0000  0.0000  0.0000
  273MPD2  CA16 4003   1.703  -1.597   4.459  0.0000  0.0000  0.0000
  273MPD2  CA17 4004   1.600  -1.528   4.530  0.0000  0.0000  0.0000
  273MPD2  CA18 4005   1.468  -1.525   4.487  0.0000  0.0000  0.0000
  273MPD2  CA19 4006   1.445  -1.602   4.374  0.0000  0.0000  0.0000
  273MPD2  CA20 4007   1.542  -1.687   4.304  0.0000  0.0000  0.0000
  273MPD2  CA21 4008   1.676  -1.674   4.344  0.0000  0.0000  0.0000
  273MPD2  HA22 4009   1.622  -1.473   4.621  0.0000  0.0000  0.0000
  273MPD2  HA23 4010   1.346  -1.600   4.330  0.0000  0.0000  0.0000
  273MPD2  HA24 4011   1.505  -1.754   4.227  0.0000  0.0000  0.0000
  273MPD2  HA25 4012   1.757  -1.729   4.297  0.0000  0.0000  0.0000
  273MPD2  HN26 4013   1.871  -1.472   4.482  0.0000  0.0000  0.0000
  273MPD2  HN27 4014   1.279  -1.505   4.570  0.0000  0.0000  0.0000
  273MPD2  NB28 4015   1.834  -1.565   4.496  0.0000  0.0000  0.0000
  273MPD2  NB29 4016   1.362  -1.450   4.554  0.0000  0.0000  0.0000
  274MPD2  CA16 4017   4.503  -0.765   5.813  0.0000  0.0000  0.0000
  274MPD2  CA17 4018   4.374  -0.711   5.831  0.0000  0.0000  0.0000
  274MPD2  CA18 4019   4.357  -0.591   5.901  0.0000  0.0000  0.0000
  274MPD2  CA19 4020   4.464  -0.528   5.960  0.0000  0.0000  0.0000
  274MPD2  CA20 4021   4.593  -0.583   5.943  0.0000  0.0000  0.0000
  274MPD2  CA21 4022   4.618  -0.696   5.860  0.0000  0.0000  0.0000
  274MPD2  HA22 4023   4.291  -0.767   5.788  0.0000  0.0000  0.0000
  274MPD2  HA23 4024   4.457  -0.440   6.022  0.0000  0.0000  0.0000
  274MPD2  HA24 4025   4.683  -0.534   5.979  0.0000  0.0000  0.0000
  274MPD2  HA25 4026   4.721  -0.725   5.842  0.0000  0.0000  0.0000
  274MPD2  HN26 4027   4.588  -0.959   5.789  0.0000  0.0000  0.0000
  274MPD2  HN27 4028   4.239  -0.427   5.942  0.0000  0.0000  0.0000
  274MPD2  NB28 4029   4.521  -0.895   5.748  0.0000  0.0000  0.0000
  274MPD2  NB29 4030   4.232  -0.526   5.925  0.0000  0.0000  0.0000
  275MPD2  CA16 4031   4.279  -1.225   5.393  0.0000  0.0000  0.0000
  275MPD2  CA17 4032   4.257  -1.276   5.265  0.0000  0.0000  0.0000
  275MPD2  CA18 4033   4.319  -1.394   5.218  0.0000  0.0000  0.0000
  275MPD2  CA19 4034   4.389  -1.478   5.303  0.0000  0.0000  0.0000
  275MPD2  CA20 4035   4.403  -1.436   5.439  0.0000  0.0000  0.0000
  275MPD2  CA21 4036   4.351  -1.312   5.477  0.0000  0.0000  0.0000
  275MPD2  HA22 4037   4.192  -1.220   5.198  0.0000  0.0000  0.0000
  275MPD2  HA23 4038   4.442  -1.566   5.269  0.0000  0.0000  0.0000
  275MPD2  HA24 4039   4.457  -1.494   5.513  0.0000  0.0000  0.0000
  275MPD2  HA25 4040   4.358  -1.281   5.581  0.0000  0.0000  0.0000
  275MPD2  HN26 4041   4.160  -1.141   5.536  0.0000  0.0000  0.0000
  275MPD2  HN27 4042   4.316  -1.529   5.061  0.0000  0.0000  0.0000
  275MPD2  NB28 4043   4.208  -1.116   5.451  0.0000  0.0000  0.0000
  275MPD2  NB29 4044   4.324  -1.430   5.081  0.0000  0.0000  0.0000
  276MPD2  CA16 4045   3.795  -1.645   3.909  0.0000  0.0000  0.0000
  276MPD2  CA17 4046   3.875  -1.544   3.967  0.0000  0.0000  0.0000
  276MPD2  CA18 4047   3.901  -1.425   3.892  0.0000  0.0000  0.0000
  276MPD2  CA19 4048   3.859  -1.412   3.756  0.0000  0.0000  0.0000
  276MPD2  CA20 4049   3.779  -1.516   3.700  0.0000  0.0000  0.0000
  276MPD2  CA21 4050   3.750  -1.630   3.776  0.0000  0.0000  0.0000
  276MPD2  HA22 4051   3.917  -1.554   4.066  0.0000  0.0000  0.0000
  276MPD2  HA23 4052   3.891  -1.330   3.693  0.0000  0.0000  0.0000
  276MPD2  HA24 4053   3.742  -1.519   3.598  0.0000  0.0000  0.0000
  276MPD2  HA25 4054   3.688  -1.707   3.732  0.0000  0.0000  0.0000
  276MPD2  HN26 4055   3.825  -1.781   4.068  0.0000  0.0000  0.0000
  276MPD2  HN27 4056   4.012  -1.244   3.890  0.0000  0.0000  0.0000
  276MPD2  NB28 4057   3.771  -1.769   3.983  0.0000  0.0000  0.0000
  276MPD2  NB29 4058   3.960  -1.307   3.950  0.0000  0.0000  0.0000
  277MPD1   CA1 4059   1.495  -0.357   4.544  0.0000  0.0000  0.0000
  277MPD1   CA2 4060   1.476  -0.264   4.438  0.0000  0.0000  0.0000
  277MPD1   CA3 4061   1.435  -0.314   4.319  0.0000  0.0000  0.0000
  277MPD1   CA4 4062   1.401  -0.448   4.304  0.0000  0.0000  0.0000
  277MPD1   CA5 4063   1.418  -0.541   4.406  0.0000  0.0000  0.0000
  277MPD1   CA6 4064   1.453  -0.493   4.531  0.0000  0.0000  0.0000
  277MPD1  HA10 4065   1.464  -0.561   4.615  0.0000  0.0000  0.0000
  277MPD1   HA7 4066   1.506  -0.161   4.452  0.0000  0.0000  0.0000
  277MPD1   HA8 4067   1.371  -0.502   4.215  0.0000  0.0000  0.0000
  277MPD1   HA9 4068   1.403  -0.648   4.391  0.0000  0.0000  0.0000
  277MPD1  HN11 4069   1.622  -0.392   4.706  0.0000  0.0000  0.0000
  277MPD1  HN12 4070   1.388  -0.277   4.125  0.0000  0.0000  0.0000
  277MPD1  HN13 4071   1.381  -0.144   4.226  0.0000  0.0000  0.0000
  277MPD1  NB14 4072   1.564  -0.321   4.664  0.0000  0.0000  0.0000
  277MPD1  NH15 4073   1.428  -0.231   4.206  0.0000  0.0000  0.0000
  278MPD2  CA16 4074   2.194  -2.102   4.789  0.0000  0.0000  0.0000
  278MPD2  CA17 4075   2.333  -2.082   4.778  0.0000  0.0000  0.0000
  278MPD2  CA18 4076   2.416  -2.054   4.888  0.0000  0.0000  0.0000
  278MPD2  CA19 4077   2.353  -2.045   5.011  0.0000  0.0000  0.0000
  278MPD2  CA20 4078   2.220  -2.088   5.026  0.0000  0.0000  0.0000
  278MPD2  CA21 4079   2.139  -2.117   4.918  0.0000  0.0000  0.0000
  278MPD2  HA22 4080   2.375  -2.066   4.680  0.0000  0.0000  0.0000
  278MPD2  HA23 4081   2.405  -2.008   5.098  0.0000  0.0000  0.0000
  278MPD2  HA24 4082   2.169  -2.074   5.120  0.0000  0.0000  0.0000
  278MPD2  HA25 4083   2.032  -2.131   4.928  0.0000  0.0000  0.0000
  278MPD2  HN26 4084   2.153  -2.168   4.596  0.0000  0.0000  0.0000
  278MPD2  HN27 4085   2.607  -2.051   4.831  0.0000  0.0000  0.0000
  278MPD2  NB28 4086   2.112  -2.117   4.673  0.0000  0.0000  0.0000
  278MPD2  NB29 4087   2.541  -1.988   4.874  0.0000  0.0000  0.0000
  279MPD2  CA16 4088   2.215   0.172   5.813  0.0000  0.0000  0.0000
  279MPD2  CA17 4089   2.286   0.226   5.706  0.0000  0.0000  0.0000
  279MPD2  CA18 4090   2.231   0.335   5.629  0.0000  0.0000  0.0000
  279MPD2  CA19 4091   2.108   0.386   5.664  0.0000  0.0000  0.0000
  279MPD2  CA20 4092   2.049   0.335   5.779  0.0000  0.0000  0.0000
  279MPD2  CA21 4093   2.099   0.228   5.852  0.0000  0.0000  0.0000
  279MPD2  HA22 4094   2.377   0.184   5.664  0.0000  0.0000  0.0000
  279MPD2  HA23 4095   2.056   0.465   5.611  0.0000  0.0000  0.0000
  279MPD2  HA24 4096   1.962   0.392   5.811  0.0000  0.0000  0.0000
  279MPD2  HA25 4097   2.045   0.190   5.939  0.0000  0.0000  0.0000
  279MPD2  HN26 4098   2.262   0.073   5.978  0.0000  0.0000  0.0000
  279MPD2  HN27 4099   2.285   0.333   5.424  0.0000  0.0000  0.0000
  279MPD2  NB28 4100   2.268   0.057   5.878  0.0000  0.0000  0.0000
  279MPD2  NB29 4101   2.303   0.379   5.513  0.0000  0.0000  0.0000
  280MPD2  CA16 4102   4.702  -0.704   5.088  0.0000  0.0000  0.0000
  280MPD2  CA17 4103   4.643  -0.827   5.079  0.0000  0.0000  0.0000
  280MPD2  CA18 4104   4.688  -0.935   5.152  0.0000  0.0000  0.0000
  280MPD2  CA19 4105   4.802  -0.914   5.233  0.0000  0.0000  0.0000
  280MPD2  CA20 4106   4.864  -0.790   5.244  0.0000  0.0000  0.0000
  280MPD2  CA21 4107   4.805  -0.684   5.181  0.0000  0.0000  0.0000
  280MPD2  HA22 4108   4.555  -0.839   5.016  0.0000  0.0000  0.0000
  280MPD2  HA23 4109   4.848  -0.992   5.292  0.0000  0.0000  0.0000
  280MPD2  HA24 4110   4.946  -0.761   5.308  0.0000  0.0000  0.0000
  280MPD2  HA25 4111   4.854  -0.588   5.190  0.0000  0.0000  0.0000
  280MPD2  HN26 4112   4.625  -0.518   5.075  0.0000  0.0000  0.0000
  280MPD2  HN27 4113   4.598  -1.084   5.037  0.0000  0.0000  0.0000
  280MPD2  NB28 4114   4.655  -0.597   5.019  0.0000  0.0000  0.0000
  280MPD2  NB29 4115   4.627  -1.067   5.132  0.0000  0.0000  0.0000
  281MPD2  CA16 4116   1.671  -0.580   5.007  0.0000  0.0000  0.0000
  281MPD2  CA17 4117   1.676  -0.702   4.937  0.0000  0.0000  0.0000
  281MPD2  CA18 4118   1.569  -0.752   4.863  0.0000  0.0000  0.0000
  281MPD2  CA19 4119   1.448  -0.678   4.859  0.0000  0.0000  0.0000
  281MPD2  CA20 4120   1.440  -0.562   4.942  0.0000  0.0000  0.0000
  281MPD2  CA21 4121   1.548  -0.519   5.018  0.0000  0.0000  0.0000
  281MPD2  HA22 4122   1.768  -0.759   4.938  0.0000  0.0000  0.0000
  281MPD2  HA23 4123   1.357  -0.708   4.807  0.0000  0.0000  0.0000
  281MPD2  HA24 4124   1.345  -0.510   4.943  0.0000  0.0000  0.0000
  281MPD2  HA25 4125   1.541  -0.437   5.088  0.0000  0.0000  0.0000
  281MPD2  HN26 4126   1.844  -0.602   5.114  0.0000  0.0000  0.0000
  281MPD2  HN27 4127   1.520  -0.869   4.703  0.0000  0.0000  0.0000
  281MPD2  NB28 4128   1.782  -0.530   5.080  0.0000  0.0000  0.0000
  281MPD2  NB29 4129   1.583  -0.868   4.783  0.0000  0.0000  0.0000
  282MPD2  CA16 4130   2.285  -0.677   5.725  0.0000  0.0000  0.0000
  282MPD2  CA17 4131   2.384  -0.778   5.743  0.0000  0.0000  0.0000
  282MPD2  CA18 4132   2.375  -0.904   5.673  0.0000  0.0000  0.0000
  282MPD2  CA19 4133   2.269  -0.922   5.581  0.0000  0.0000  0.0000
  282MPD2  CA20 4134   2.164  -0.830   5.579  0.0000  0.0000  0.0000
  282MPD2  CA21 4135   2.169  -0.705   5.650  0.0000  0.0000  0.0000
  282MPD2  HA22 4136   2.456  -0.764   5.822  0.0000  0.0000  0.0000
  282MPD2  HA23 4137   2.258  -1.012   5.521  0.0000  0.0000  0.0000
  282MPD2  HA24 4138   2.069  -0.846   5.528  0.0000  0.0000  0.0000
  282MPD2  HA25 4139   2.092  -0.628   5.643  0.0000  0.0000  0.0000
  282MPD2  HN26 4140   2.242  -0.482   5.771  0.0000  0.0000  0.0000
  282MPD2  HN27 4141   2.569  -0.959   5.716  0.0000  0.0000  0.0000
  282MPD2  NB28 4142   2.284  -0.565   5.811  0.0000  0.0000  0.0000
  282MPD2  NB29 4143   2.481  -0.993   5.677  0.0000  0.0000  0.0000
  283MPD2  CA16 4144   2.104   0.481   3.322  0.0000  0.0000  0.0000
  283MPD2  CA17 4145   2.197   0.588   3.304  0.0000  0.0000  0.0000
  283MPD2  CA18 4146   2.169   0.709   3.366  0.0000  0.0000  0.0000
  283MPD2  CA19 4147   2.047   0.738   3.434  0.0000  0.0000  0.0000
  283MPD2  CA20 4148   1.952   0.635   3.434  0.0000  0.0000  0.0000
  283MPD2  CA21 4149   1.979   0.509   3.381  0.0000  0.0000  0.0000
  283MPD2  HA22 4150   2.289   0.571   3.248  0.0000  0.0000  0.0000
  283MPD2  HA23 4151   2.023   0.829   3.489  0.0000  0.0000  0.0000
  283MPD2  HA24 4152   1.859   0.656   3.486  0.0000  0.0000  0.0000
  283MPD2  HA25 4153   1.900   0.436   3.394  0.0000  0.0000  0.0000
  283MPD2  HN26 4154   2.080   0.331   3.190  0.0000  0.0000  0.0000
  283MPD2  HN27 4155   2.372   0.759   3.367  0.0000  0.0000  0.0000
  283MPD2  NB28 4156   2.136   0.353   3.272  0.0000  0.0000  0.0000
  283MPD2  NB29 4157   2.280   0.802   3.375  0.0000  0.0000  0.0000
  284MPD1   CA1 4158   3.294  -0.242   5.547  0.0000  0.0000  0.0000
  284MPD1   CA2 4159   3.360  -0.122   5.594  0.0000  0.0000  0.0000
  284MPD1   CA3 4160   3.478  -0.065   5.541  0.0000  0.0000  0.0000
  284MPD1   CA4 4161   3.530  -0.139   5.436  0.0000  0.0000  0.0000
  284MPD1   CA5 4162   3.468  -0.255   5.385  0.0000  0.0000  0.0000
  284MPD1   CA6 4163   3.355  -0.311   5.443  0.0000  0.0000  0.0000
  284MPD1  HA10 4164   3.312  -0.403   5.404  0.0000  0.0000  0.0000
  284MPD1   HA7 4165   3.316  -0.076   5.682  0.0000  0.0000  0.0000
  284MPD1   HA8 4166   3.607  -0.106   5.368  0.0000  0.0000  0.0000
  284MPD1   HA9 4167   3.510  -0.304   5.298  0.0000  0.0000  0.0000
  284MPD1  HN11 4168   3.204  -0.306   5.719  0.0000  0.0000  0.0000
  284MPD1  HN12 4169   3.506   0.113   5.655  0.0000  0.0000  0.0000
  284MPD1  HN13 4170   3.611   0.101   5.523  0.0000  0.0000  0.0000
  284MPD1  NB14 4171   3.185  -0.295   5.621  0.0000  0.0000  0.0000
  284MPD1  NH15 4172   3.540   0.055   5.579  0.0000  0.0000  0.0000
  285MPD2  CA16 4173   1.758  -1.296   5.632  0.0000  0.0000  0.0000
  285MPD2  CA17 4174   1.825  -1.262   5.516  0.0000  0.0000  0.0000
  285MPD2  CA18 4175   1.823  -1.349   5.406  0.0000  0.0000  0.0000
  285MPD2  CA19 4176   1.748  -1.466   5.417  0.0000  0.0000  0.0000
  285MPD2  CA20 4177   1.683  -1.498   5.537  0.0000  0.0000  0.0000
  285MPD2  CA21 4178   1.681  -1.417   5.646  0.0000  0.0000  0.0000
  285MPD2  HA22 4179   1.868  -1.163   5.506  0.0000  0.0000  0.0000
  285MPD2  HA23 4180   1.751  -1.536   5.334  0.0000  0.0000  0.0000
  285MPD2  HA24 4181   1.641  -1.598   5.550  0.0000  0.0000  0.0000
  285MPD2  HA25 4182   1.643  -1.443   5.745  0.0000  0.0000  0.0000
  285MPD2  HN26 4183   1.844  -1.181   5.776  0.0000  0.0000  0.0000
  285MPD2  HN27 4184   1.848  -1.264   5.217  0.0000  0.0000  0.0000
  285MPD2  NB28 4185   1.757  -1.189   5.725  0.0000  0.0000  0.0000
  285MPD2  NB29 4186   1.899  -1.314   5.288  0.0000  0.0000  0.0000
  286MPD2  CA16 4187   2.240  -0.334   3.934  0.0000  0.0000  0.0000
  286MPD2  CA17 4188   2.274  -0.234   3.850  0.0000  0.0000  0.0000
  286MPD2  CA18 4189   2.215  -0.106   3.858  0.0000  0.0000  0.0000
  286MPD2  CA19 4190   2.114  -0.091   3.955  0.0000  0.0000  0.0000
  286MPD2  CA20 4191   2.089  -0.191   4.050  0.0000  0.0000  0.0000
  286MPD2  CA21 4192   2.151  -0.314   4.040  0.0000  0.0000  0.0000
  286MPD2  HA22 4193   2.356  -0.258   3.783  0.0000  0.0000  0.0000
  286MPD2  HA23 4194   2.062   0.003   3.969  0.0000  0.0000  0.0000
  286MPD2  HA24 4195   2.027  -0.167   4.136  0.0000  0.0000  0.0000
  286MPD2  HA25 4196   2.117  -0.398   4.100  0.0000  0.0000  0.0000
  286MPD2  HN26 4197   2.412  -0.442   3.918  0.0000  0.0000  0.0000
  286MPD2  HN27 4198   2.298  -0.029   3.687  0.0000  0.0000  0.0000
  286MPD2  NB28 4199   2.312  -0.453   3.924  0.0000  0.0000  0.0000
  286MPD2  NB29 4200   2.263  -0.003   3.778  0.0000  0.0000  0.0000
  287MPD2  CA16 4201   4.041  -0.487   4.629  0.0000  0.0000  0.0000
  287MPD2  CA17 4202   4.033  -0.611   4.572  0.0000  0.0000  0.0000
  287MPD2  CA18 4203   3.924  -0.655   4.503  0.0000  0.0000  0.0000
  287MPD2  CA19 4204   3.814  -0.567   4.491  0.0000  0.0000  0.0000
  287MPD2  CA20 4205   3.814  -0.447   4.559  0.0000  0.0000  0.0000
  287MPD2  CA21 4206   3.927  -0.401   4.624  0.0000  0.0000  0.0000
  287MPD2  HA22 4207   4.116  -0.681   4.568  0.0000  0.0000  0.0000
  287MPD2  HA23 4208   3.723  -0.596   4.440  0.0000  0.0000  0.0000
  287MPD2  HA24 4209   3.729  -0.380   4.551  0.0000  0.0000  0.0000
  287MPD2  HA25 4210   3.921  -0.309   4.680  0.0000  0.0000  0.0000
  287MPD2  HN26 4211   4.235  -0.530   4.687  0.0000  0.0000  0.0000
  287MPD2  HN27 4212   3.842  -0.757   4.349  0.0000  0.0000  0.0000
  287MPD2  NB28 4213   4.165  -0.458   4.699  0.0000  0.0000  0.0000
  287MPD2  NB29 4214   3.916  -0.768   4.418  0.0000  0.0000  0.0000
  288MPD2  CA16 4215   2.023   1.670   4.533  0.0000  0.0000  0.0000
  288MPD2  CA17 4216   1.900   1.735   4.528  0.0000  0.0000  0.0000
  288MPD2  CA18 4217   1.824   1.737   4.408  0.0000  0.0000  0.0000
  288MPD2  CA19 4218   1.881   1.683   4.296  0.0000  0.0000  0.0000
  288MPD2  CA20 4219   2.003   1.615   4.300  0.0000  0.0000  0.0000
  288MPD2  CA21 4220   2.077   1.611   4.419  0.0000  0.0000  0.0000
  288MPD2  HA22 4221   1.858   1.786   4.614  0.0000  0.0000  0.0000
  288MPD2  HA23 4222   1.830   1.683   4.200  0.0000  0.0000  0.0000
  288MPD2  HA24 4223   2.040   1.571   4.208  0.0000  0.0000  0.0000
  288MPD2  HA25 4224   2.170   1.555   4.418  0.0000  0.0000  0.0000
  288MPD2  HN26 4225   2.201   1.680   4.621  0.0000  0.0000  0.0000
  288MPD2  HN27 4226   1.679   1.872   4.347  0.0000  0.0000  0.0000
  288MPD2  NB28 4227   2.103   1.668   4.647  0.0000  0.0000  0.0000
  288MPD2  NB29 4228   1.688   1.789   4.404  0.0000  0.0000  0.0000
  289MPD2  CA16 4229   3.988   0.020   3.364  0.0000  0.0000  0.0000
  289MPD2  CA17 4230   3.954  -0.103   3.424  0.0000  0.0000  0.0000
  289MPD2  CA18 4231   3.823  -0.117   3.478  0.0000  0.0000  0.0000
  289MPD2  CA19 4232   3.724  -0.018   3.453  0.0000  0.0000  0.0000
  289MPD2  CA20 4233   3.765   0.103   3.382  0.0000  0.0000  0.0000
  289MPD2  CA21 4234   3.897   0.117   3.332  0.0000  0.0000  0.0000
  289MPD2  HA22 4235   4.036  -0.166   3.457  0.0000  0.0000  0.0000
  289MPD2  HA23 4236   3.625  -0.031   3.495  0.0000  0.0000  0.0000
  289MPD2  HA24 4237   3.695   0.185   3.376  0.0000  0.0000  0.0000
  289MPD2  HA25 4238   3.938   0.205   3.283  0.0000  0.0000  0.0000
  289MPD2  HN26 4239   4.153   0.060   3.247  0.0000  0.0000  0.0000
  289MPD2  HN27 4240   3.810  -0.304   3.567  0.0000  0.0000  0.0000
  289MPD2  NB28 4241   4.123   0.063   3.344  0.0000  0.0000  0.0000
  289MPD2  NB29 4242   3.807  -0.205   3.589  0.0000  0.0000  0.0000
  290MPD2  CA16 4243   2.723  -0.526   6.191  0.0000  0.0000  0.0000
  290MPD2  CA17 4244   2.635  -0.420   6.228  0.0000  0.0000  0.0000
  290MPD2  CA18 4245   2.578  -0.402   6.357  0.0000  0.0000  0.0000
  290MPD2  CA19 4246   2.599  -0.506   6.446  0.0000  0.0000  0.0000
  290MPD2  CA20 4247   2.693  -0.606   6.412  0.0000  0.0000  0.0000
  290MPD2  CA21 4248   2.753  -0.621   6.287  0.0000  0.0000  0.0000
  290MPD2  HA22 4249   2.610  -0.344   6.154  0.0000  0.0000  0.0000
  290MPD2  HA23 4250   2.551  -0.509   6.543  0.0000  0.0000  0.0000
  290MPD2  HA24 4251   2.703  -0.689   6.481  0.0000  0.0000  0.0000
  290MPD2  HA25 4252   2.823  -0.702   6.266  0.0000  0.0000  0.0000
  290MPD2  HN26 4253   2.759  -0.625   6.012  0.0000  0.0000  0.0000
  290MPD2  HN27 4254   2.491  -0.268   6.486  0.0000  0.0000  0.0000
  290MPD2  NB28 4255   2.774  -0.537   6.060  0.0000  0.0000  0.0000
  290MPD2  NB29 4256   2.495  -0.290   6.387  0.0000  0.0000  0.0000
  291MPD2  CA16 4257   3.290  -1.950   4.759  0.0000  0.0000  0.0000
  291MPD2  CA17 4258   3.373  -1.884   4.669  0.0000  0.0000  0.0000
  291MPD2  CA18 4259   3.486  -1.941   4.619  0.0000  0.0000  0.0000
  291MPD2  CA19 4260   3.525  -2.071   4.656  0.0000  0.0000  0.0000
  291MPD2  CA20 4261   3.439  -2.137   4.746  0.0000  0.0000  0.0000
  291MPD2  CA21 4262   3.324  -2.078   4.795  0.0000  0.0000  0.0000
  291MPD2  HA22 4263   3.339  -1.783   4.643  0.0000  0.0000  0.0000
  291MPD2  HA23 4264   3.612  -2.115   4.608  0.0000  0.0000  0.0000
  291MPD2  HA24 4265   3.472  -2.237   4.770  0.0000  0.0000  0.0000
  291MPD2  HA25 4266   3.264  -2.123   4.874  0.0000  0.0000  0.0000
  291MPD2  HN26 4267   3.179  -1.780   4.802  0.0000  0.0000  0.0000
  291MPD2  HN27 4268   3.576  -1.901   4.435  0.0000  0.0000  0.0000
  291MPD2  NB28 4269   3.178  -1.881   4.812  0.0000  0.0000  0.0000
  291MPD2  NB29 4270   3.570  -1.863   4.529  0.0000  0.0000  0.0000
  292MPD2  CA16 4271   2.583  -0.681   3.230  0.0000  0.0000  0.0000
  292MPD2  CA17 4272   2.458  -0.638   3.170  0.0000  0.0000  0.0000
  292MPD2  CA18 4273   2.455  -0.535   3.081  0.0000  0.0000  0.0000
  292MPD2  CA19 4274   2.567  -0.450   3.062  0.0000  0.0000  0.0000
  292MPD2  CA20 4275   2.682  -0.480   3.132  0.0000  0.0000  0.0000
  292MPD2  CA21 4276   2.696  -0.595   3.216  0.0000  0.0000  0.0000
  292MPD2  HA22 4277   2.378  -0.711   3.170  0.0000  0.0000  0.0000
  292MPD2  HA23 4278   2.556  -0.374   2.985  0.0000  0.0000  0.0000
  292MPD2  HA24 4279   2.764  -0.412   3.115  0.0000  0.0000  0.0000
  292MPD2  HA25 4280   2.791  -0.622   3.259  0.0000  0.0000  0.0000
  292MPD2  HN26 4281   2.538  -0.893   3.234  0.0000  0.0000  0.0000
  292MPD2  HN27 4282   2.346  -0.496   2.916  0.0000  0.0000  0.0000
  292MPD2  NB28 4283   2.599  -0.819   3.269  0.0000  0.0000  0.0000
  292MPD2  NB29 4284   2.335  -0.503   3.016  0.0000  0.0000  0.0000
  293MPD2  CA16 4285   4.229  -0.364   3.791  0.0000  0.0000  0.0000
  293MPD2  CA17 4286   4.173  -0.453   3.885  0.0000  0.0000  0.0000
  293MPD2  CA18 4287   4.218  -0.585   3.895  0.0000  0.0000  0.0000
  293MPD2  CA19 4288   4.322  -0.625   3.816  0.0000  0.0000  0.0000
  293MPD2  CA20 4289   4.379  -0.540   3.727  0.0000  0.0000  0.0000
  293MPD2  CA21 4290   4.327  -0.412   3.707  0.0000  0.0000  0.0000
  293MPD2  HA22 4291   4.081  -0.424   3.936  0.0000  0.0000  0.0000
  293MPD2  HA23 4292   4.358  -0.727   3.825  0.0000  0.0000  0.0000
  293MPD2  HA24 4293   4.453  -0.584   3.661  0.0000  0.0000  0.0000
  293MPD2  HA25 4294   4.373  -0.344   3.636  0.0000  0.0000  0.0000
  293MPD2  HN26 4295   4.181  -0.220   3.660  0.0000  0.0000  0.0000
  293MPD2  HN27 4296   4.130  -0.658   4.068  0.0000  0.0000  0.0000
  293MPD2  NB28 4297   4.169  -0.242   3.758  0.0000  0.0000  0.0000
  293MPD2  NB29 4298   4.157  -0.682   3.973  0.0000  0.0000  0.0000
  294MPD2  CA16 4299   2.640   0.691   3.755  0.0000  0.0000  0.0000
  294MPD2  CA17 4300   2.771   0.680   3.792  0.0000  0.0000  0.0000
  294MPD2  CA18 4301   2.853   0.790   3.803  0.0000  0.0000  0.0000
  294MPD2  CA19 4302   2.806   0.911   3.765  0.0000  0.0000  0.0000
  294MPD2  CA20 4303   2.672   0.931   3.723  0.0000  0.0000  0.0000
  294MPD2  CA21 4304   2.593   0.820   3.712  0.0000  0.0000  0.0000
  294MPD2  HA22 4305   2.810   0.583   3.822  0.0000  0.0000  0.0000
  294MPD2  HA23 4306   2.869   0.998   3.783  0.0000  0.0000  0.0000
  294MPD2  HA24 4307   2.632   1.030   3.705  0.0000  0.0000  0.0000
  294MPD2  HA25 4308   2.488   0.826   3.685  0.0000  0.0000  0.0000
  294MPD2  HN26 4309   2.557   0.513   3.809  0.0000  0.0000  0.0000
  294MPD2  HN27 4310   3.045   0.715   3.818  0.0000  0.0000  0.0000
  294MPD2  NB28 4311   2.553   0.580   3.734  0.0000  0.0000  0.0000
  294MPD2  NB29 4312   2.983   0.786   3.855  0.0000  0.0000  0.0000
  295MPD2  CA16 4313   3.752   0.732   3.855  0.0000  0.0000  0.0000
  295MPD2  CA17 4314   3.821   0.614   3.859  0.0000  0.0000  0.0000
  295MPD2  CA18 4315   3.938   0.599   3.788  0.0000  0.0000  0.0000
  295MPD2  CA19 4316   3.978   0.703   3.703  0.0000  0.0000  0.0000
  295MPD2  CA20 4317   3.897   0.819   3.698  0.0000  0.0000  0.0000
  295MPD2  CA21 4318   3.797   0.837   3.783  0.0000  0.0000  0.0000
  295MPD2  HA22 4319   3.784   0.539   3.928  0.0000  0.0000  0.0000
  295MPD2  HA23 4320   4.056   0.698   3.628  0.0000  0.0000  0.0000
  295MPD2  HA24 4321   3.915   0.907   3.637  0.0000  0.0000  0.0000
  295MPD2  HA25 4322   3.752   0.936   3.782  0.0000  0.0000  0.0000
  295MPD2  HN26 4323   3.647   0.757   4.025  0.0000  0.0000  0.0000
  295MPD2  HN27 4324   4.094   0.472   3.712  0.0000  0.0000  0.0000
  295MPD2  NB28 4325   3.632   0.744   3.926  0.0000  0.0000  0.0000
  295MPD2  NB29 4326   4.007   0.473   3.764  0.0000  0.0000  0.0000
  296MPD2  CA16 4327   2.745  -0.273   3.815  0.0000  0.0000  0.0000
  296MPD2  CA17 4328   2.671  -0.310   3.930  0.0000  0.0000  0.0000
  296MPD2  CA18 4329   2.620  -0.221   4.025  0.0000  0.0000  0.0000
  296MPD2  CA19 4330   2.654  -0.087   4.010  0.0000  0.0000  0.0000
  296MPD2  CA20 4331   2.731  -0.049   3.896  0.0000  0.0000  0.0000
  296MPD2  CA21 4332   2.777  -0.139   3.799  0.0000  0.0000  0.0000
  296MPD2  HA22 4333   2.652  -0.416   3.943  0.0000  0.0000  0.0000
  296MPD2  HA23 4334   2.611  -0.012   4.075  0.0000  0.0000  0.0000
  296MPD2  HA24 4335   2.756   0.056   3.885  0.0000  0.0000  0.0000
  296MPD2  HA25 4336   2.824  -0.101   3.709  0.0000  0.0000  0.0000
  296MPD2  HN26 4337   2.884  -0.384   3.717  0.0000  0.0000  0.0000
  296MPD2  HN27 4338   2.456  -0.180   4.134  0.0000  0.0000  0.0000
  296MPD2  NB28 4339   2.784  -0.371   3.719  0.0000  0.0000  0.0000
  296MPD2  NB29 4340   2.521  -0.256   4.115  0.0000  0.0000  0.0000
  297MPD2  CA16 4341   1.875  -0.968   4.349  0.0000  0.0000  0.0000
  297MPD2  CA17 4342   1.997  -0.894   4.360  0.0000  0.0000  0.0000
  297MPD2  CA18 4343   1.991  -0.750   4.381  0.0000  0.0000  0.0000
  297MPD2  CA19 4344   1.871  -0.690   4.401  0.0000  0.0000  0.0000
  297MPD2  CA20 4345   1.757  -0.761   4.386  0.0000  0.0000  0.0000
  297MPD2  CA21 4346   1.755  -0.897   4.353  0.0000  0.0000  0.0000
  297MPD2  HA22 4347   2.090  -0.949   4.352  0.0000  0.0000  0.0000
  297MPD2  HA23 4348   1.864  -0.583   4.418  0.0000  0.0000  0.0000
  297MPD2  HA24 4349   1.665  -0.703   4.390  0.0000  0.0000  0.0000
  297MPD2  HA25 4350   1.661  -0.941   4.323  0.0000  0.0000  0.0000
  297MPD2  HN26 4351   1.922  -1.118   4.219  0.0000  0.0000  0.0000
  297MPD2  HN27 4352   2.171  -0.668   4.297  0.0000  0.0000  0.0000
  297MPD2  NB28 4353   1.872  -1.103   4.306  0.0000  0.0000  0.0000
  297MPD2  NB29 4354   2.110  -0.669   4.378  0.0000  0.0000  0.0000
  298MPD2  CA16 4355   1.217   0.115   5.356  0.0000  0.0000  0.0000
  298MPD2  CA17 4356   1.209  -0.012   5.284  0.0000  0.0000  0.0000
  298MPD2  CA18 4357   1.203  -0.136   5.348  0.0000  0.0000  0.0000
  298MPD2  CA19 4358   1.198  -0.133   5.490  0.0000  0.0000  0.0000
  298MPD2  CA20 4359   1.196  -0.011   5.561  0.0000  0.0000  0.0000
  298MPD2  CA21 4360   1.216   0.115   5.492  0.0000  0.0000  0.0000
  298MPD2  HA22 4361   1.203  -0.005   5.176  0.0000  0.0000  0.0000
  298MPD2  HA23 4362   1.205  -0.223   5.550  0.0000  0.0000  0.0000
  298MPD2  HA24 4363   1.196  -0.013   5.669  0.0000  0.0000  0.0000
  298MPD2  HA25 4364   1.206   0.207   5.549  0.0000  0.0000  0.0000
  298MPD2  HN26 4365   1.305   0.238   5.217  0.0000  0.0000  0.0000
  298MPD2  HN27 4366   1.143  -0.243   5.183  0.0000  0.0000  0.0000
  298MPD2  NB28 4367   1.228   0.233   5.282  0.0000  0.0000  0.0000
  298MPD2  NB29 4368   1.197  -0.251   5.268  0.0000  0.0000  0.0000
  299MPD2  CA16 4369   2.646  -1.054   5.284  0.0000  0.0000  0.0000
  299MPD2  CA17 4370   2.666  -0.946   5.376  0.0000  0.0000  0.0000
  299MPD2  CA18 4371   2.795  -0.896   5.397  0.0000  0.0000  0.0000
  299MPD2  CA19 4372   2.906  -0.975   5.358  0.0000  0.0000  0.0000
  299MPD2  CA20 4373   2.887  -1.083   5.275  0.0000  0.0000  0.0000
  299MPD2  CA21 4374   2.758  -1.123   5.239  0.0000  0.0000  0.0000
  299MPD2  HA22 4375   2.579  -0.895   5.417  0.0000  0.0000  0.0000
  299MPD2  HA23 4376   3.007  -0.938   5.372  0.0000  0.0000  0.0000
  299MPD2  HA24 4377   2.976  -1.138   5.248  0.0000  0.0000  0.0000
  299MPD2  HA25 4378   2.759  -1.208   5.172  0.0000  0.0000  0.0000
  299MPD2  HN26 4379   2.453  -1.105   5.325  0.0000  0.0000  0.0000
  299MPD2  HN27 4380   2.922  -0.747   5.453  0.0000  0.0000  0.0000
  299MPD2  NB28 4381   2.518  -1.100   5.247  0.0000  0.0000  0.0000
  299MPD2  NB29 4382   2.828  -0.782   5.471  0.0000  0.0000  0.0000
  300MPD2  CA16 4383   3.379   1.121   4.732  0.0000  0.0000  0.0000
  300MPD2  CA17 4384   3.353   1.089   4.600  0.0000  0.0000  0.0000
  300MPD2  CA18 4385   3.257   0.992   4.563  0.0000  0.0000  0.0000
  300MPD2  CA19 4386   3.175   0.936   4.658  0.0000  0.0000  0.0000
  300MPD2  CA20 4387   3.193   0.980   4.796  0.0000  0.0000  0.0000
  300MPD2  CA21 4388   3.299   1.063   4.833  0.0000  0.0000  0.0000
  300MPD2  HA22 4389   3.412   1.132   4.520  0.0000  0.0000  0.0000
  300MPD2  HA23 4390   3.105   0.856   4.635  0.0000  0.0000  0.0000
  300MPD2  HA24 4391   3.138   0.939   4.880  0.0000  0.0000  0.0000
  300MPD2  HA25 4392   3.322   1.085   4.937  0.0000  0.0000  0.0000
  300MPD2  HN26 4393   3.537   1.161   4.858  0.0000  0.0000  0.0000
  300MPD2  HN27 4394   3.154   0.932   4.388  0.0000  0.0000  0.0000
  300MPD2  NB28 4395   3.491   1.195   4.775  0.0000  0.0000  0.0000
  300MPD2  NB29 4396   3.246   0.953   4.423  0.0000  0.0000  0.0000
  301MPD2  CA16 4397   3.797  -1.956   5.082  0.0000  0.0000  0.0000
  301MPD2  CA17 4398   3.665  -1.948   5.140  0.0000  0.0000  0.0000
  301MPD2  CA18 4399   3.572  -2.050   5.113  0.0000  0.0000  0.0000
  301MPD2  CA19 4400   3.616  -2.163   5.043  0.0000  0.0000  0.0000
  301MPD2  CA20 4401   3.742  -2.171   4.993  0.0000  0.0000  0.0000
  301MPD2  CA21 4402   3.839  -2.066   5.009  0.0000  0.0000  0.0000
  301MPD2  HA22 4403   3.645  -1.857   5.196  0.0000  0.0000  0.0000
  301MPD2  HA23 4404   3.548  -2.243   5.019  0.0000  0.0000  0.0000
  301MPD2  HA24 4405   3.776  -2.254   4.932  0.0000  0.0000  0.0000
  301MPD2  HA25 4406   3.942  -2.081   4.978  0.0000  0.0000  0.0000
  301MPD2  HN26 4407   3.956  -1.846   5.163  0.0000  0.0000  0.0000
  301MPD2  HN27 4408   3.412  -2.128   5.210  0.0000  0.0000  0.0000
  301MPD2  NB28 4409   3.883  -1.841   5.093  0.0000  0.0000  0.0000
  301MPD2  NB29 4410   3.445  -2.042   5.168  0.0000  0.0000  0.0000
  302MPD2  CA16 4411   3.296  -0.686   5.593  0.0000  0.0000  0.0000
  302MPD2  CA17 4412   3.395  -0.598   5.614  0.0000  0.0000  0.0000
  302MPD2  CA18 4413   3.401  -0.526   5.733  0.0000  0.0000  0.0000
  302MPD2  CA19 4414   3.303  -0.546   5.826  0.0000  0.0000  0.0000
  302MPD2  CA20 4415   3.196  -0.635   5.803  0.0000  0.0000  0.0000
  302MPD2  CA21 4416   3.195  -0.710   5.690  0.0000  0.0000  0.0000
  302MPD2  HA22 4417   3.463  -0.574   5.533  0.0000  0.0000  0.0000
  302MPD2  HA23 4418   3.300  -0.491   5.920  0.0000  0.0000  0.0000
  302MPD2  HA24 4419   3.121  -0.656   5.879  0.0000  0.0000  0.0000
  302MPD2  HA25 4420   3.112  -0.780   5.684  0.0000  0.0000  0.0000
  302MPD2  HN26 4421   3.390  -0.825   5.472  0.0000  0.0000  0.0000
  302MPD2  HN27 4422   3.458  -0.343   5.809  0.0000  0.0000  0.0000
  302MPD2  NB28 4423   3.309  -0.764   5.477  0.0000  0.0000  0.0000
  302MPD2  NB29 4424   3.490  -0.417   5.749  0.0000  0.0000  0.0000
  303MPD2  CA16 4425   1.248   1.235   4.893  0.0000  0.0000  0.0000
  303MPD2  CA17 4426   1.283   1.113   4.947  0.0000  0.0000  0.0000
  303MPD2  CA18 4427   1.193   1.045   5.029  0.0000  0.0000  0.0000
  303MPD2  CA19 4428   1.076   1.103   5.063  0.0000  0.0000  0.0000
  303MPD2  CA20 4429   1.038   1.223   5.005  0.0000  0.0000  0.0000
  303MPD2  CA21 4430   1.124   1.296   4.926  0.0000  0.0000  0.0000
  303MPD2  HA22 4431   1.378   1.070   4.920  0.0000  0.0000  0.0000
  303MPD2  HA23 4432   1.007   1.046   5.125  0.0000  0.0000  0.0000
  303MPD2  HA24 4433   0.937   1.260   5.018  0.0000  0.0000  0.0000
  303MPD2  HA25 4434   1.090   1.392   4.890  0.0000  0.0000  0.0000
  303MPD2  HN26 4435   1.433   1.236   4.803  0.0000  0.0000  0.0000
  303MPD2  HN27 4436   1.333   0.899   5.090  0.0000  0.0000  0.0000
  303MPD2  NB28 4437   1.350   1.293   4.814  0.0000  0.0000  0.0000
  303MPD2  NB29 4438   1.234   0.919   5.083  0.0000  0.0000  0.0000
  304MPD2  CA16 4439   3.085  -1.209   4.899  0.0000  0.0000  0.0000
  304MPD2  CA17 4440   3.202  -1.278   4.858  0.0000  0.0000  0.0000
  304MPD2  CA18 4441   3.221  -1.417   4.880  0.0000  0.0000  0.0000
  304MPD2  CA19 4442   3.123  -1.481   4.946  0.0000  0.0000  0.0000
  304MPD2  CA20 4443   3.003  -1.418   4.979  0.0000  0.0000  0.0000
  304MPD2  CA21 4444   2.984  -1.283   4.958  0.0000  0.0000  0.0000
  304MPD2  HA22 4445   3.277  -1.227   4.799  0.0000  0.0000  0.0000
  304MPD2  HA23 4446   3.135  -1.586   4.971  0.0000  0.0000  0.0000
  304MPD2  HA24 4447   2.924  -1.464   5.037  0.0000  0.0000  0.0000
  304MPD2  HA25 4448   2.894  -1.246   5.006  0.0000  0.0000  0.0000
  304MPD2  HN26 4449   2.967  -1.067   4.807  0.0000  0.0000  0.0000
  304MPD2  HN27 4450   3.364  -1.499   4.747  0.0000  0.0000  0.0000
  304MPD2  NB28 4451   3.046  -1.070   4.871  0.0000  0.0000  0.0000
  304MPD2  NB29 4452   3.337  -1.487   4.844  0.0000  0.0000  0.0000
  305MPD2  CA16 4453   2.576   0.847   4.696  0.0000  0.0000  0.0000
  305MPD2  CA17 4454   2.612   0.795   4.567  0.0000  0.0000  0.0000
  305MPD2  CA18 4455   2.732   0.829   4.510  0.0000  0.0000  0.0000
  305MPD2  CA19 4456   2.822   0.919   4.581  0.0000  0.0000  0.0000
  305MPD2  CA20 4457   2.786   0.964   4.709  0.0000  0.0000  0.0000
  305MPD2  CA21 4458   2.662   0.931   4.761  0.0000  0.0000  0.0000
  305MPD2  HA22 4459   2.542   0.729   4.517  0.0000  0.0000  0.0000
  305MPD2  HA23 4460   2.921   0.938   4.541  0.0000  0.0000  0.0000
  305MPD2  HA24 4461   2.863   1.023   4.758  0.0000  0.0000  0.0000
  305MPD2  HA25 4462   2.641   0.965   4.862  0.0000  0.0000  0.0000
  305MPD2  HN26 4463   2.406   0.882   4.818  0.0000  0.0000  0.0000
  305MPD2  HN27 4464   2.674   0.798   4.317  0.0000  0.0000  0.0000
  305MPD2  NB28 4465   2.453   0.811   4.764  0.0000  0.0000  0.0000
  305MPD2  NB29 4466   2.758   0.788   4.374  0.0000  0.0000  0.0000
  306MPD2  CA16 4467   2.352   0.362   4.312  0.0000  0.0000  0.0000
  306MPD2  CA17 4468   2.340   0.224   4.304  0.0000  0.0000  0.0000
  306MPD2  CA18 4469   2.232   0.153   4.363  0.0000  0.0000  0.0000
  306MPD2  CA19 4470   2.124   0.224   4.419  0.0000  0.0000  0.0000
  306MPD2  CA20 4471   2.137   0.363   4.425  0.0000  0.0000  0.0000
  306MPD2  CA21 4472   2.254   0.433   4.377  0.0000  0.0000  0.0000
  306MPD2  HA22 4473   2.426   0.170   4.263  0.0000  0.0000  0.0000
  306MPD2  HA23 4474   2.039   0.173   4.464  0.0000  0.0000  0.0000
  306MPD2  HA24 4475   2.050   0.420   4.456  0.0000  0.0000  0.0000
  306MPD2  HA25 4476   2.262   0.541   4.380  0.0000  0.0000  0.0000
  306MPD2  HN26 4477   2.518   0.493   4.321  0.0000  0.0000  0.0000
  306MPD2  HN27 4478   2.288  -0.038   4.295  0.0000  0.0000  0.0000
  306MPD2  NB28 4479   2.466   0.435   4.257  0.0000  0.0000  0.0000
  306MPD2  NB29 4480   2.233   0.016   4.362  0.0000  0.0000  0.0000
  307MPD2  CA16 4481   4.059   0.620   4.593  0.0000  0.0000  0.0000
  307MPD2  CA17 4482   3.997   0.737   4.634  0.0000  0.0000  0.0000
  307MPD2  CA18 4483   4.034   0.863   4.582  0.0000  0.0000  0.0000
  307MPD2  CA19 4484   4.132   0.867   4.484  0.0000  0.0000  0.0000
  307MPD2  CA20 4485   4.196   0.746   4.451  0.0000  0.0000  0.0000
  307MPD2  CA21 4486   4.165   0.626   4.499  0.0000  0.0000  0.0000
  307MPD2  HA22 4487   3.916   0.738   4.706  0.0000  0.0000  0.0000
  307MPD2  HA23 4488   4.184   0.956   4.450  0.0000  0.0000  0.0000
  307MPD2  HA24 4489   4.284   0.757   4.388  0.0000  0.0000  0.0000
  307MPD2  HA25 4490   4.224   0.542   4.465  0.0000  0.0000  0.0000
  307MPD2  HN26 4491   3.921   0.486   4.689  0.0000  0.0000  0.0000
  307MPD2  HN27 4492   3.871   0.982   4.661  0.0000  0.0000  0.0000
  307MPD2  NB28 4493   4.020   0.504   4.671  0.0000  0.0000  0.0000
  307MPD2  NB29 4494   3.969   0.980   4.635  0.0000  0.0000  0.0000
  308MPD2  CA16 4495   1.791   0.428   5.110  0.0000  0.0000  0.0000
  308MPD2  CA17 4496   1.846   0.320   5.027  0.0000  0.0000  0.0000
  308MPD2  CA18 4497   1.983   0.293   5.030  0.0000  0.0000  0.0000
  308MPD2  CA19 4498   2.076   0.376   5.098  0.0000  0.0000  0.0000
  308MPD2  CA20 4499   2.022   0.480   5.178  0.0000  0.0000  0.0000
  308MPD2  CA21 4500   1.885   0.504   5.187  0.0000  0.0000  0.0000
  308MPD2  HA22 4501   1.778   0.251   4.977  0.0000  0.0000  0.0000
  308MPD2  HA23 4502   2.181   0.351   5.100  0.0000  0.0000  0.0000
  308MPD2  HA24 4503   2.088   0.554   5.222  0.0000  0.0000  0.0000
  308MPD2  HA25 4504   1.852   0.586   5.250  0.0000  0.0000  0.0000
  308MPD2  HN26 4505   1.599   0.379   5.178  0.0000  0.0000  0.0000
  308MPD2  HN27 4506   2.090   0.212   4.879  0.0000  0.0000  0.0000
  308MPD2  NB28 4507   1.651   0.450   5.127  0.0000  0.0000  0.0000
  308MPD2  NB29 4508   2.041   0.180   4.962  0.0000  0.0000  0.0000
  309MPD2  CA16 4509   2.135  -0.595   5.017  0.0000  0.0000  0.0000
  309MPD2  CA17 4510   2.119  -0.696   4.920  0.0000  0.0000  0.0000
  309MPD2  CA18 4511   2.088  -0.833   4.949  0.0000  0.0000  0.0000
  309MPD2  CA19 4512   2.045  -0.859   5.082  0.0000  0.0000  0.0000
  309MPD2  CA20 4513   2.065  -0.758   5.176  0.0000  0.0000  0.0000
  309MPD2  CA21 4514   2.107  -0.627   5.149  0.0000  0.0000  0.0000
  309MPD2  HA22 4515   2.134  -0.664   4.817  0.0000  0.0000  0.0000
  309MPD2  HA23 4516   2.010  -0.953   5.121  0.0000  0.0000  0.0000
  309MPD2  HA24 4517   2.030  -0.789   5.274  0.0000  0.0000  0.0000
  309MPD2  HA25 4518   2.114  -0.545   5.220  0.0000  0.0000  0.0000
  309MPD2  HN26 4519   2.090  -0.406   5.039  0.0000  0.0000  0.0000
  309MPD2  HN27 4520   2.010  -0.891   4.769  0.0000  0.0000  0.0000
  309MPD2  NB28 4521   2.159  -0.461   4.990  0.0000  0.0000  0.0000
  309MPD2  NB29 4522   2.065  -0.927   4.846  0.0000  0.0000  0.0000
  310MPD2  CA16 4523   4.238  -0.342   5.323  0.0000  0.0000  0.0000
  310MPD2  CA17 4524   4.192  -0.287   5.198  0.0000  0.0000  0.0000
  310MPD2  CA18 4525   4.225  -0.154   5.164  0.0000  0.0000  0.0000
  310MPD2  CA19 4526   4.320  -0.085   5.239  0.0000  0.0000  0.0000
  310MPD2  CA20 4527   4.359  -0.132   5.362  0.0000  0.0000  0.0000
  310MPD2  CA21 4528   4.315  -0.258   5.408  0.0000  0.0000  0.0000
  310MPD2  HA22 4529   4.123  -0.339   5.133  0.0000  0.0000  0.0000
  310MPD2  HA23 4530   4.342   0.018   5.212  0.0000  0.0000  0.0000
  310MPD2  HA24 4531   4.416  -0.062   5.421  0.0000  0.0000  0.0000
  310MPD2  HA25 4532   4.362  -0.293   5.499  0.0000  0.0000  0.0000
  310MPD2  HN26 4533   4.252  -0.551   5.330  0.0000  0.0000  0.0000
  310MPD2  HN27 4534   4.044  -0.100   5.061  0.0000  0.0000  0.0000
  310MPD2  NB28 4535   4.194  -0.474   5.363  0.0000  0.0000  0.0000
  310MPD2  NB29 4536   4.145  -0.091   5.062  0.0000  0.0000  0.0000
  311MPD2  CA16 4537   3.954  -1.135   4.929  0.0000  0.0000  0.0000
  311MPD2  CA17 4538   3.837  -1.085   4.986  0.0000  0.0000  0.0000
  311MPD2  CA18 4539   3.719  -1.169   4.992  0.0000  0.0000  0.0000
  311MPD2  CA19 4540   3.727  -1.300   4.961  0.0000  0.0000  0.0000
  311MPD2  CA20 4541   3.848  -1.351   4.924  0.0000  0.0000  0.0000
  311MPD2  CA21 4542   3.965  -1.275   4.912  0.0000  0.0000  0.0000
  311MPD2  HA22 4543   3.830  -0.978   5.004  0.0000  0.0000  0.0000
  311MPD2  HA23 4544   3.637  -1.360   4.970  0.0000  0.0000  0.0000
  311MPD2  HA24 4545   3.850  -1.454   4.890  0.0000  0.0000  0.0000
  311MPD2  HA25 4546   4.060  -1.319   4.880  0.0000  0.0000  0.0000
  311MPD2  HN26 4547   4.157  -1.077   4.925  0.0000  0.0000  0.0000
  311MPD2  HN27 4548   3.517  -1.166   4.973  0.0000  0.0000  0.0000
  311MPD2  NB28 4549   4.064  -1.051   4.893  0.0000  0.0000  0.0000
  311MPD2  NB29 4550   3.591  -1.118   5.022  0.0000  0.0000  0.0000
  312MPD2  CA16 4551   2.769  -0.112   4.366  0.0000  0.0000  0.0000
  312MPD2  CA17 4552   2.681  -0.137   4.467  0.0000  0.0000  0.0000
  312MPD2  CA18 4553   2.601  -0.040   4.526  0.0000  0.0000  0.0000
  312MPD2  CA19 4554   2.598   0.088   4.470  0.0000  0.0000  0.0000
  312MPD2  CA20 4555   2.686   0.121   4.371  0.0000  0.0000  0.0000
  312MPD2  CA21 4556   2.771   0.022   4.317  0.0000  0.0000  0.0000
  312MPD2  HA22 4557   2.681  -0.242   4.494  0.0000  0.0000  0.0000
  312MPD2  HA23 4558   2.527   0.166   4.496  0.0000  0.0000  0.0000
  312MPD2  HA24 4559   2.698   0.215   4.318  0.0000  0.0000  0.0000
  312MPD2  HA25 4560   2.845   0.056   4.245  0.0000  0.0000  0.0000
  312MPD2  HN26 4561   2.933  -0.166   4.260  0.0000  0.0000  0.0000
  312MPD2  HN27 4562   2.465  -0.167   4.620  0.0000  0.0000  0.0000
  312MPD2  NB28 4563   2.855  -0.207   4.311  0.0000  0.0000  0.0000
  312MPD2  NB29 4564   2.507  -0.075   4.629  0.0000  0.0000  0.0000
  313MPD2  CA16 4565   3.721  -0.133   4.959  0.0000  0.0000  0.0000
  313MPD2  CA17 4566   3.733  -0.261   4.896  0.0000  0.0000  0.0000
  313MPD2  CA18 4567   3.783  -0.370   4.969  0.0000  0.0000  0.0000
  313MPD2  CA19 4568   3.826  -0.351   5.104  0.0000  0.0000  0.0000
  313MPD2  CA20 4569   3.821  -0.229   5.163  0.0000  0.0000  0.0000
  313MPD2  CA21 4570   3.767  -0.125   5.093  0.0000  0.0000  0.0000
  313MPD2  HA22 4571   3.703  -0.270   4.792  0.0000  0.0000  0.0000
  313MPD2  HA23 4572   3.866  -0.435   5.160  0.0000  0.0000  0.0000
  313MPD2  HA24 4573   3.848  -0.221   5.268  0.0000  0.0000  0.0000
  313MPD2  HA25 4574   3.757  -0.031   5.146  0.0000  0.0000  0.0000
  313MPD2  HN26 4575   3.564  -0.030   4.872  0.0000  0.0000  0.0000
  313MPD2  HN27 4576   3.895  -0.544   4.935  0.0000  0.0000  0.0000
  313MPD2  NB28 4577   3.665  -0.023   4.881  0.0000  0.0000  0.0000
  313MPD2  NB29 4578   3.809  -0.498   4.909  0.0000  0.0000  0.0000
  314MPD2  CA16 4579   3.028   0.178   3.834  0.0000  0.0000  0.0000
  314MPD2  CA17 4580   3.038   0.062   3.903  0.0000  0.0000  0.0000
  314MPD2  CA18 4581   3.109  -0.047   3.857  0.0000  0.0000  0.0000
  314MPD2  CA19 4582   3.171  -0.032   3.731  0.0000  0.0000  0.0000
  314MPD2  CA20 4583   3.164   0.084   3.656  0.0000  0.0000  0.0000
  314MPD2  CA21 4584   3.089   0.193   3.705  0.0000  0.0000  0.0000
  314MPD2  HA22 4585   2.988   0.055   3.999  0.0000  0.0000  0.0000
  314MPD2  HA23 4586   3.224  -0.117   3.690  0.0000  0.0000  0.0000
  314MPD2  HA24 4587   3.217   0.090   3.561  0.0000  0.0000  0.0000
  314MPD2  HA25 4588   3.076   0.286   3.650  0.0000  0.0000  0.0000
  314MPD2  HN26 4589   2.891   0.337   3.829  0.0000  0.0000  0.0000
  314MPD2  HN27 4590   3.089  -0.163   4.032  0.0000  0.0000  0.0000
  314MPD2  NB28 4591   2.962   0.293   3.886  0.0000  0.0000  0.0000
  314MPD2  NB29 4592   3.112  -0.171   3.934  0.0000  0.0000  0.0000
  315MPD2  CA16 4593   3.245  -0.883   4.285  0.0000  0.0000  0.0000
  315MPD2  CA17 4594   3.335  -0.873   4.392  0.0000  0.0000  0.0000
  315MPD2  CA18 4595   3.411  -0.978   4.434  0.0000  0.0000  0.0000
  315MPD2  CA19 4596   3.411  -1.093   4.357  0.0000  0.0000  0.0000
  315MPD2  CA20 4597   3.339  -1.094   4.240  0.0000  0.0000  0.0000
  315MPD2  CA21 4598   3.247  -0.998   4.211  0.0000  0.0000  0.0000
  315MPD2  HA22 4599   3.329  -0.783   4.453  0.0000  0.0000  0.0000
  315MPD2  HA23 4600   3.477  -1.178   4.373  0.0000  0.0000  0.0000
  315MPD2  HA24 4601   3.342  -1.187   4.184  0.0000  0.0000  0.0000
  315MPD2  HA25 4602   3.175  -1.022   4.133  0.0000  0.0000  0.0000
  315MPD2  HN26 4603   3.127  -0.706   4.318  0.0000  0.0000  0.0000
  315MPD2  HN27 4604   3.470  -0.894   4.617  0.0000  0.0000  0.0000
  315MPD2  NB28 4605   3.169  -0.764   4.247  0.0000  0.0000  0.0000
  315MPD2  NB29 4606   3.506  -0.948   4.539  0.0000  0.0000  0.0000
  316TMC3  CA37 4607   3.715  -0.903   4.656  0.0000  0.0000  0.0000
  316TMC3  CA38 4608   3.678  -0.777   4.699  0.0000  0.0000  0.0000
  316TMC3  CA39 4609   3.759  -0.694   4.785  0.0000  0.0000  0.0000
  316TMC3  CA40 4610   3.883  -0.751   4.820  0.0000  0.0000  0.0000
  316TMC3  CA41 4611   3.925  -0.874   4.779  0.0000  0.0000  0.0000
  316TMC3  CA42 4612   3.847  -0.946   4.692  0.0000  0.0000  0.0000
  316TMC3  CB43 4613   3.641  -0.979   4.546  0.0000  0.0000  0.0000
  316TMC3  CB44 4614   3.720  -0.560   4.824  0.0000  0.0000  0.0000
  316TMC3  CB45 4615   4.058  -0.923   4.833  0.0000  0.0000  0.0000
  316TMC3  HA46 4616   3.589  -0.729   4.658  0.0000  0.0000  0.0000
  316TMC3  HA47 4617   3.961  -0.693   4.871  0.0000  0.0000  0.0000
  316TMC3  HA48 4618   3.889  -1.037   4.651  0.0000  0.0000  0.0000
  316TMC3   O49 4619   3.697  -1.045   4.466  0.0000  0.0000  0.0000
  316TMC3   O50 4620   3.616  -0.507   4.785  0.0000  0.0000  0.0000
  316TMC3   O51 4621   4.160  -0.854   4.823  0.0000  0.0000  0.0000
  317TMC3  CA37 4622   2.938  -0.410   4.217  0.0000  0.0000  0.0000
  317TMC3  CA38 4623   2.990  -0.536   4.226  0.0000  0.0000  0.0000
  317TMC3  CA39 4624   3.068  -0.588   4.124  0.0000  0.0000  0.0000
  317TMC3  CA40 4625   3.103  -0.514   4.014  0.0000  0.0000  0.0000
  317TMC3  CA41 4626   3.057  -0.388   4.003  0.0000  0.0000  0.0000
  317TMC3  CA42 4627   2.972  -0.334   4.105  0.0000  0.0000  0.0000
  317TMC3  CB43 4628   2.845  -0.346   4.307  0.0000  0.0000  0.0000
  317TMC3  CB44 4629   3.130  -0.725   4.128  0.0000  0.0000  0.0000
  317TMC3  CB45 4630   3.101  -0.302   3.885  0.0000  0.0000  0.0000
  317TMC3  HA46 4631   2.956  -0.600   4.307  0.0000  0.0000  0.0000
  317TMC3  HA47 4632   3.165  -0.552   3.933  0.0000  0.0000  0.0000
  317TMC3  HA48 4633   2.926  -0.238   4.083  0.0000  0.0000  0.0000
  317TMC3   O49 4634   2.777  -0.418   4.380  0.0000  0.0000  0.0000
  317TMC3   O50 4635   3.163  -0.780   4.022  0.0000  0.0000  0.0000
  317TMC3   O51 4636   3.115  -0.341   3.775  0.0000  0.0000  0.0000
  318TMC3  CA37 4637   2.169  -0.032   4.948  0.0000  0.0000  0.0000
  318TMC3  CA38 4638   2.280   0.025   4.886  0.0000  0.0000  0.0000
  318TMC3  CA39 4639   2.358  -0.057   4.814  0.0000  0.0000  0.0000
  318TMC3  CA40 4640   2.360  -0.193   4.827  0.0000  0.0000  0.0000
  318TMC3  CA41 4641   2.255  -0.255   4.899  0.0000  0.0000  0.0000
  318TMC3  CA42 4642   2.159  -0.170   4.960  0.0000  0.0000  0.0000
  318TMC3  CB43 4643   2.056   0.044   5.004  0.0000  0.0000  0.0000
  318TMC3  CB44 4644   2.465   0.005   4.731  0.0000  0.0000  0.0000
  318TMC3  CB45 4645   2.260  -0.404   4.911  0.0000  0.0000  0.0000
  318TMC3  HA46 4646   2.289   0.132   4.872  0.0000  0.0000  0.0000
  318TMC3  HA47 4647   2.442  -0.249   4.782  0.0000  0.0000  0.0000
  318TMC3  HA48 4648   2.078  -0.224   5.008  0.0000  0.0000  0.0000
  318TMC3   O49 4649   1.984  -0.007   5.089  0.0000  0.0000  0.0000
  318TMC3   O50 4650   2.503   0.114   4.759  0.0000  0.0000  0.0000
  318TMC3   O51 4651   2.340  -0.467   4.848  0.0000  0.0000  0.0000
  319TMC3  CA37 4652   3.866   0.128   4.835  0.0000  0.0000  0.0000
  319TMC3  CA38 4653   3.907   0.244   4.773  0.0000  0.0000  0.0000
  319TMC3  CA39 4654   4.043   0.281   4.777  0.0000  0.0000  0.0000
  319TMC3  CA40 4655   4.139   0.192   4.832  0.0000  0.0000  0.0000
  319TMC3  CA41 4656   4.096   0.076   4.897  0.0000  0.0000  0.0000
  319TMC3  CA42 4657   3.962   0.046   4.890  0.0000  0.0000  0.0000
  319TMC3  CB43 4658   3.721   0.099   4.835  0.0000  0.0000  0.0000
  319TMC3  CB44 4659   4.102   0.401   4.717  0.0000  0.0000  0.0000
  319TMC3  CB45 4660   4.194  -0.001   4.971  0.0000  0.0000  0.0000
  319TMC3  HA46 4661   3.833   0.319   4.748  0.0000  0.0000  0.0000
  319TMC3  HA47 4662   4.243   0.222   4.842  0.0000  0.0000  0.0000
  319TMC3  HA48 4663   3.933  -0.050   4.933  0.0000  0.0000  0.0000
  319TMC3   O49 4664   3.642   0.181   4.791  0.0000  0.0000  0.0000
  319TMC3   O50 4665   4.224   0.399   4.706  0.0000  0.0000  0.0000
  319TMC3   O51 4666   4.313   0.028   4.960  0.0000  0.0000  0.0000
  320TMC3  CA37 4667   2.658   0.474   4.119  0.0000  0.0000  0.0000
  320TMC3  CA38 4668   2.753   0.413   4.035  0.0000  0.0000  0.0000
  320TMC3  CA39 4669   2.884   0.452   4.054  0.0000  0.0000  0.0000
  320TMC3  CA40 4670   2.912   0.556   4.143  0.0000  0.0000  0.0000
  320TMC3  CA41 4671   2.822   0.620   4.220  0.0000  0.0000  0.0000
  320TMC3  CA42 4672   2.688   0.580   4.202  0.0000  0.0000  0.0000
  320TMC3  CB43 4673   2.524   0.410   4.133  0.0000  0.0000  0.0000
  320TMC3  CB44 4674   3.000   0.365   3.992  0.0000  0.0000  0.0000
  320TMC3  CB45 4675   2.867   0.727   4.318  0.0000  0.0000  0.0000
  320TMC3  HA46 4676   2.723   0.324   3.980  0.0000  0.0000  0.0000
  320TMC3  HA47 4677   3.014   0.581   4.172  0.0000  0.0000  0.0000
  320TMC3  HA48 4678   2.611   0.627   4.262  0.0000  0.0000  0.0000
  320TMC3   O49 4679   2.474   0.336   4.047  0.0000  0.0000  0.0000
  320TMC3   O50 4680   3.107   0.358   4.049  0.0000  0.0000  0.0000
  320TMC3   O51 4681   2.981   0.764   4.339  0.0000  0.0000  0.0000
  321TMC2   C20 4682   1.911   0.510   4.770  0.0000  0.0000  0.0000
  321TMC2  CA21 4683   2.010   0.609   4.809  0.0000  0.0000  0.0000
  321TMC2  CA22 4684   1.991   0.681   4.922  0.0000  0.0000  0.0000
  321TMC2  CA23 4685   2.086   0.760   4.986  0.0000  0.0000  0.0000
  321TMC2  CA24 4686   2.214   0.766   4.930  0.0000  0.0000  0.0000
  321TMC2  CA25 4687   2.236   0.699   4.806  0.0000  0.0000  0.0000
  321TMC2  CA26 4688   2.132   0.622   4.742  0.0000  0.0000  0.0000
  321TMC2  CB27 4689   2.055   0.828   5.117  0.0000  0.0000  0.0000
  321TMC2  CB28 4690   2.376   0.695   4.743  0.0000  0.0000  0.0000
  321TMC2  HA29 4691   1.892   0.672   4.967  0.0000  0.0000  0.0000
  321TMC2  HA30 4692   2.291   0.822   4.982  0.0000  0.0000  0.0000
  321TMC2  HA31 4693   2.166   0.566   4.655  0.0000  0.0000  0.0000
  321TMC2  HO32 4694   1.768   0.626   4.838  0.0000  0.0000  0.0000
  321TMC2   O33 4695   1.938   0.404   4.717  0.0000  0.0000  0.0000
  321TMC2   O34 4696   2.151   0.836   5.197  0.0000  0.0000  0.0000
  321TMC2   O35 4697   2.425   0.602   4.683  0.0000  0.0000  0.0000
  321TMC2  OH36 4698   1.776   0.537   4.799  0.0000  0.0000  0.0000
  322TMC3  CA37 4699   3.180  -0.955   5.049  0.0000  0.0000  0.0000
  322TMC3  CA38 4700   3.310  -1.007   5.034  0.0000  0.0000  0.0000
  322TMC3  CA39 4701   3.408  -0.972   5.129  0.0000  0.0000  0.0000
  322TMC3  CA40 4702   3.374  -0.901   5.246  0.0000  0.0000  0.0000
  322TMC3  CA41 4703   3.245  -0.855   5.260  0.0000  0.0000  0.0000
  322TMC3  CA42 4704   3.153  -0.877   5.160  0.0000  0.0000  0.0000
  322TMC3  CB43 4705   3.072  -0.952   4.938  0.0000  0.0000  0.0000
  322TMC3  CB44 4706   3.550  -1.009   5.106  0.0000  0.0000  0.0000
  322TMC3  CB45 4707   3.217  -0.769   5.371  0.0000  0.0000  0.0000
  322TMC3  HA46 4708   3.345  -1.045   4.939  0.0000  0.0000  0.0000
  322TMC3  HA47 4709   3.454  -0.879   5.316  0.0000  0.0000  0.0000
  322TMC3  HA48 4710   3.055  -0.835   5.180  0.0000  0.0000  0.0000
  322TMC3   O49 4711   3.011  -0.851   4.909  0.0000  0.0000  0.0000
  322TMC3   O50 4712   3.642  -0.952   5.161  0.0000  0.0000  0.0000
  322TMC3   O51 4713   3.120  -0.701   5.362  0.0000  0.0000  0.0000
  323TMC3  CA37 4714   3.707   1.296   4.742  0.0000  0.0000  0.0000
  323TMC3  CA38 4715   3.794   1.204   4.690  0.0000  0.0000  0.0000
  323TMC3  CA39 4716   3.924   1.198   4.741  0.0000  0.0000  0.0000
  323TMC3  CA40 4717   3.951   1.277   4.856  0.0000  0.0000  0.0000
  323TMC3  CA41 4718   3.857   1.361   4.914  0.0000  0.0000  0.0000
  323TMC3  CA42 4719   3.734   1.372   4.855  0.0000  0.0000  0.0000
  323TMC3  CB43 4720   3.562   1.282   4.701  0.0000  0.0000  0.0000
  323TMC3  CB44 4721   4.025   1.093   4.691  0.0000  0.0000  0.0000
  323TMC3  CB45 4722   3.881   1.438   5.046  0.0000  0.0000  0.0000
  323TMC3  HA46 4723   3.767   1.150   4.600  0.0000  0.0000  0.0000
  323TMC3  HA47 4724   4.049   1.264   4.901  0.0000  0.0000  0.0000
  323TMC3  HA48 4725   3.660   1.444   4.890  0.0000  0.0000  0.0000
  323TMC3   O49 4726   3.511   1.331   4.600  0.0000  0.0000  0.0000
  323TMC3   O50 4727   4.149   1.111   4.690  0.0000  0.0000  0.0000
  323TMC3   O51 4728   3.867   1.558   5.055  0.0000  0.0000  0.0000
  324TMC3  CA37 4729   1.445   0.569   5.150  0.0000  0.0000  0.0000
  324TMC3  CA38 4730   1.378   0.689   5.141  0.0000  0.0000  0.0000
  324TMC3  CA39 4731   1.244   0.696   5.176  0.0000  0.0000  0.0000
  324TMC3  CA40 4732   1.178   0.588   5.238  0.0000  0.0000  0.0000
  324TMC3  CA41 4733   1.256   0.472   5.249  0.0000  0.0000  0.0000
  324TMC3  CA42 4734   1.384   0.457   5.199  0.0000  0.0000  0.0000
  324TMC3  CB43 4735   1.583   0.560   5.087  0.0000  0.0000  0.0000
  324TMC3  CB44 4736   1.162   0.816   5.135  0.0000  0.0000  0.0000
  324TMC3  CB45 4737   1.181   0.359   5.312  0.0000  0.0000  0.0000
  324TMC3  HA46 4738   1.438   0.772   5.105  0.0000  0.0000  0.0000
  324TMC3  HA47 4739   1.078   0.592   5.279  0.0000  0.0000  0.0000
  324TMC3  HA48 4740   1.434   0.361   5.194  0.0000  0.0000  0.0000
  324TMC3   O49 4741   1.634   0.648   5.021  0.0000  0.0000  0.0000
  324TMC3   O50 4742   1.037   0.814   5.137  0.0000  0.0000  0.0000
  324TMC3   O51 4743   1.084   0.380   5.389  0.0000  0.0000  0.0000
  325TMC3  CA37 4744   3.667  -1.731   4.706  0.0000  0.0000  0.0000
  325TMC3  CA38 4745   3.563  -1.652   4.744  0.0000  0.0000  0.0000
  325TMC3  CA39 4746   3.544  -1.610   4.872  0.0000  0.0000  0.0000
  325TMC3  CA40 4747   3.642  -1.641   4.968  0.0000  0.0000  0.0000
  325TMC3  CA41 4748   3.756  -1.708   4.926  0.0000  0.0000  0.0000
  325TMC3  CA42 4749   3.773  -1.758   4.798  0.0000  0.0000  0.0000
  325TMC3  CB43 4750   3.674  -1.781   4.569  0.0000  0.0000  0.0000
  325TMC3  CB44 4751   3.419  -1.559   4.927  0.0000  0.0000  0.0000
  325TMC3  CB45 4752   3.867  -1.717   5.027  0.0000  0.0000  0.0000
  325TMC3  HA46 4753   3.481  -1.644   4.674  0.0000  0.0000  0.0000
  325TMC3  HA47 4754   3.650  -1.618   5.073  0.0000  0.0000  0.0000
  325TMC3  HA48 4755   3.861  -1.816   4.772  0.0000  0.0000  0.0000
  325TMC3   O49 4756   3.772  -1.755   4.498  0.0000  0.0000  0.0000
  325TMC3   O50 4757   3.403  -1.561   5.048  0.0000  0.0000  0.0000
  325TMC3   O51 4758   3.933  -1.623   5.058  0.0000  0.0000  0.0000
  326TMC3  CA37 4759   1.472   1.446   4.676  0.0000  0.0000  0.0000
  326TMC3  CA38 4760   1.469   1.563   4.601  0.0000  0.0000  0.0000
  326TMC3  CA39 4761   1.581   1.599   4.529  0.0000  0.0000  0.0000
  326TMC3  CA40 4762   1.683   1.504   4.509  0.0000  0.0000  0.0000
  326TMC3  CA41 4763   1.697   1.390   4.586  0.0000  0.0000  0.0000
  326TMC3  CA42 4764   1.585   1.357   4.666  0.0000  0.0000  0.0000
  326TMC3  CB43 4765   1.353   1.416   4.751  0.0000  0.0000  0.0000
  326TMC3  CB44 4766   1.568   1.724   4.447  0.0000  0.0000  0.0000
  326TMC3  CB45 4767   1.811   1.291   4.577  0.0000  0.0000  0.0000
  326TMC3  HA46 4768   1.384   1.631   4.607  0.0000  0.0000  0.0000
  326TMC3  HA47 4769   1.764   1.513   4.437  0.0000  0.0000  0.0000
  326TMC3  HA48 4770   1.586   1.263   4.720  0.0000  0.0000  0.0000
  326TMC3   O49 4771   1.257   1.495   4.754  0.0000  0.0000  0.0000
  326TMC3   O50 4772   1.460   1.779   4.430  0.0000  0.0000  0.0000
  326TMC3   O51 4773   1.797   1.176   4.550  0.0000  0.0000  0.0000
  327TMC3  CA37 4774   2.324  -1.154   5.100  0.0000  0.0000  0.0000
  327TMC3  CA38 4775   2.250  -1.223   5.194  0.0000  0.0000  0.0000
  327TMC3  CA39 4776   2.112  -1.258   5.175  0.0000  0.0000  0.0000
  327TMC3  CA40 4777   2.044  -1.202   5.062  0.0000  0.0000  0.0000
  327TMC3  CA41 4778   2.118  -1.130   4.975  0.0000  0.0000  0.0000
  327TMC3  CA42 4779   2.256  -1.110   4.986  0.0000  0.0000  0.0000
  327TMC3  CB43 4780   2.467  -1.120   5.120  0.0000  0.0000  0.0000
  327TMC3  CB44 4781   2.038  -1.322   5.288  0.0000  0.0000  0.0000
  327TMC3  CB45 4782   2.054  -1.069   4.851  0.0000  0.0000  0.0000
  327TMC3  HA46 4783   2.313  -1.257   5.275  0.0000  0.0000  0.0000
  327TMC3  HA47 4784   1.940  -1.222   5.038  0.0000  0.0000  0.0000
  327TMC3  HA48 4785   2.305  -1.051   4.910  0.0000  0.0000  0.0000
  327TMC3   O49 4786   2.525  -1.097   5.017  0.0000  0.0000  0.0000
  327TMC3   O50 4787   2.109  -1.364   5.376  0.0000  0.0000  0.0000
  327TMC3   O51 4788   2.005  -1.140   4.762  0.0000  0.0000  0.0000
  328TMC3  CA37 4789   2.379  -0.355   4.283  0.0000  0.0000  0.0000
  328TMC3  CA38 4790   2.357  -0.233   4.345  0.0000  0.0000  0.0000
  328TMC3  CA39 4791   2.259  -0.212   4.435  0.0000  0.0000  0.0000
  328TMC3  CA40 4792   2.182  -0.322   4.469  0.0000  0.0000  0.0000
  328TMC3  CA41 4793   2.203  -0.445   4.415  0.0000  0.0000  0.0000
  328TMC3  CA42 4794   2.303  -0.465   4.324  0.0000  0.0000  0.0000
  328TMC3  CB43 4795   2.489  -0.369   4.189  0.0000  0.0000  0.0000
  328TMC3  CB44 4796   2.225  -0.072   4.474  0.0000  0.0000  0.0000
  328TMC3  CB45 4797   2.128  -0.559   4.463  0.0000  0.0000  0.0000
  328TMC3  HA46 4798   2.416  -0.145   4.318  0.0000  0.0000  0.0000
  328TMC3  HA47 4799   2.112  -0.306   4.550  0.0000  0.0000  0.0000
  328TMC3  HA48 4800   2.327  -0.567   4.293  0.0000  0.0000  0.0000
  328TMC3   O49 4801   2.532  -0.479   4.167  0.0000  0.0000  0.0000
  328TMC3   O50 4802   2.183  -0.038   4.580  0.0000  0.0000  0.0000
  328TMC3   O51 4803   2.078  -0.562   4.577  0.0000  0.0000  0.0000
  329TMC3  CA37 4804   3.390   0.795   3.986  0.0000  0.0000  0.0000
  329TMC3  CA38 4805   3.257   0.791   3.947  0.0000  0.0000  0.0000
  329TMC3  CA39 4806   3.155   0.849   4.026  0.0000  0.0000  0.0000
  329TMC3  CA40 4807   3.180   0.879   4.163  0.0000  0.0000  0.0000
  329TMC3  CA41 4808   3.316   0.884   4.208  0.0000  0.0000  0.0000
  329TMC3  CA42 4809   3.416   0.835   4.119  0.0000  0.0000  0.0000
  329TMC3  CB43 4810   3.502   0.757   3.883  0.0000  0.0000  0.0000
  329TMC3  CB44 4811   3.012   0.852   3.974  0.0000  0.0000  0.0000
  329TMC3  CB45 4812   3.348   0.934   4.338  0.0000  0.0000  0.0000
  329TMC3  HA46 4813   3.235   0.757   3.846  0.0000  0.0000  0.0000
  329TMC3  HA47 4814   3.101   0.933   4.214  0.0000  0.0000  0.0000
  329TMC3  HA48 4815   3.517   0.857   4.153  0.0000  0.0000  0.0000
  329TMC3   O49 4816   3.470   0.742   3.764  0.0000  0.0000  0.0000
  329TMC3   O50 4817   2.938   0.919   4.043  0.0000  0.0000  0.0000
  329TMC3   O51 4818   3.470   0.950   4.353  0.0000  0.0000  0.0000
  330TMC2   C20 4819   3.096  -0.755   3.645  0.0000  0.0000  0.0000
  330TMC2  CA21 4820   2.959  -0.730   3.600  0.0000  0.0000  0.0000
  330TMC2  CA22 4821   2.886  -0.812   3.506  0.0000  0.0000  0.0000
  330TMC2  CA23 4822   2.759  -0.777   3.462  0.0000  0.0000  0.0000
  330TMC2  CA24 4823   2.697  -0.661   3.512  0.0000  0.0000  0.0000
  330TMC2  CA25 4824   2.767  -0.579   3.599  0.0000  0.0000  0.0000
  330TMC2  CA26 4825   2.894  -0.614   3.645  0.0000  0.0000  0.0000
  330TMC2  CB27 4826   2.680  -0.870   3.372  0.0000  0.0000  0.0000
  330TMC2  CB28 4827   2.700  -0.460   3.658  0.0000  0.0000  0.0000
  330TMC2  HA29 4828   2.930  -0.907   3.476  0.0000  0.0000  0.0000
  330TMC2  HA30 4829   2.594  -0.642   3.484  0.0000  0.0000  0.0000
  330TMC2  HA31 4830   2.944  -0.559   3.724  0.0000  0.0000  0.0000
  330TMC2  HO32 4831   3.114  -0.897   3.524  0.0000  0.0000  0.0000
  330TMC2   O33 4832   3.147  -0.687   3.731  0.0000  0.0000  0.0000
  330TMC2   O34 4833   2.689  -0.991   3.394  0.0000  0.0000  0.0000
  330TMC2   O35 4834   2.576  -0.451   3.664  0.0000  0.0000  0.0000
  330TMC2  OH36 4835   3.170  -0.848   3.586  0.0000  0.0000  0.0000
  331TMC3  CA37 4836   4.097  -0.009   3.763  0.0000  0.0000  0.0000
  331TMC3  CA38 4837   4.047   0.100   3.828  0.0000  0.0000  0.0000
  331TMC3  CA39 4838   4.063   0.230   3.777  0.0000  0.0000  0.0000
  331TMC3  CA40 4839   4.109   0.243   3.646  0.0000  0.0000  0.0000
  331TMC3  CA41 4840   4.161   0.131   3.578  0.0000  0.0000  0.0000
  331TMC3  CA42 4841   4.153   0.006   3.640  0.0000  0.0000  0.0000
  331TMC3  CB43 4842   4.120  -0.141   3.834  0.0000  0.0000  0.0000
  331TMC3  CB44 4843   3.991   0.348   3.828  0.0000  0.0000  0.0000
  331TMC3  CB45 4844   4.200   0.139   3.433  0.0000  0.0000  0.0000
  331TMC3  HA46 4845   3.997   0.101   3.925  0.0000  0.0000  0.0000
  331TMC3  HA47 4846   4.107   0.333   3.585  0.0000  0.0000  0.0000
  331TMC3  HA48 4847   4.204  -0.074   3.588  0.0000  0.0000  0.0000
  331TMC3   O49 4848   4.088  -0.163   3.952  0.0000  0.0000  0.0000
  331TMC3   O50 4849   3.926   0.338   3.929  0.0000  0.0000  0.0000
  331TMC3   O51 4850   4.296   0.209   3.397  0.0000  0.0000  0.0000
  332TMC3  CA37 4851   2.992  -0.435   5.643  0.0000  0.0000  0.0000
  332TMC3  CA38 4852   2.971  -0.411   5.776  0.0000  0.0000  0.0000
  332TMC3  CA39 4853   2.880  -0.491   5.848  0.0000  0.0000  0.0000
  332TMC3  CA40 4854   2.812  -0.600   5.785  0.0000  0.0000  0.0000
  332TMC3  CA41 4855   2.846  -0.630   5.656  0.0000  0.0000  0.0000
  332TMC3  CA42 4856   2.939  -0.552   5.586  0.0000  0.0000  0.0000
  332TMC3  CB43 4857   3.077  -0.354   5.554  0.0000  0.0000  0.0000
  332TMC3  CB44 4858   2.848  -0.445   5.988  0.0000  0.0000  0.0000
  332TMC3  CB45 4859   2.777  -0.741   5.590  0.0000  0.0000  0.0000
  332TMC3  HA46 4860   2.998  -0.317   5.823  0.0000  0.0000  0.0000
  332TMC3  HA47 4861   2.736  -0.658   5.835  0.0000  0.0000  0.0000
  332TMC3  HA48 4862   2.963  -0.568   5.481  0.0000  0.0000  0.0000
  332TMC3   O49 4863   3.051  -0.331   5.434  0.0000  0.0000  0.0000
  332TMC3   O50 4864   2.877  -0.341   6.039  0.0000  0.0000  0.0000
  332TMC3   O51 4865   2.670  -0.784   5.636  0.0000  0.0000  0.0000
  333TMC3  CA37 4866   4.062  -0.899   4.037  0.0000  0.0000  0.0000
  333TMC3  CA38 4867   4.018  -1.030   4.008  0.0000  0.0000  0.0000
  333TMC3  CA39 4868   3.973  -1.121   4.109  0.0000  0.0000  0.0000
  333TMC3  CA40 4869   3.958  -1.077   4.240  0.0000  0.0000  0.0000
  333TMC3  CA41 4870   3.996  -0.944   4.271  0.0000  0.0000  0.0000
  333TMC3  CA42 4871   4.055  -0.863   4.173  0.0000  0.0000  0.0000
  333TMC3  CB43 4872   4.121  -0.809   3.931  0.0000  0.0000  0.0000
  333TMC3  CB44 4873   3.933  -1.263   4.081  0.0000  0.0000  0.0000
  333TMC3  CB45 4874   3.996  -0.888   4.410  0.0000  0.0000  0.0000
  333TMC3  HA46 4875   4.022  -1.068   3.907  0.0000  0.0000  0.0000
  333TMC3  HA47 4876   3.906  -1.133   4.316  0.0000  0.0000  0.0000
  333TMC3  HA48 4877   4.096  -0.767   4.205  0.0000  0.0000  0.0000
  333TMC3   O49 4878   4.132  -0.848   3.815  0.0000  0.0000  0.0000
  333TMC3   O50 4879   3.871  -1.325   4.167  0.0000  0.0000  0.0000
  333TMC3   O51 4880   4.072  -0.926   4.497  0.0000  0.0000  0.0000
  334TMC3  CA37 4881   2.268   0.285   3.466  0.0000  0.0000  0.0000
  334TMC3  CA38 4882   2.256   0.194   3.572  0.0000  0.0000  0.0000
  334TMC3  CA39 4883   2.312   0.219   3.699  0.0000  0.0000  0.0000
  334TMC3  CA40 4884   2.361   0.348   3.725  0.0000  0.0000  0.0000
  334TMC3  CA41 4885   2.390   0.432   3.614  0.0000  0.0000  0.0000
  334TMC3  CA42 4886   2.340   0.398   3.489  0.0000  0.0000  0.0000
  334TMC3  CB43 4887   2.213   0.252   3.331  0.0000  0.0000  0.0000
  334TMC3  CB44 4888   2.287   0.124   3.811  0.0000  0.0000  0.0000
  334TMC3  CB45 4889   2.473   0.554   3.623  0.0000  0.0000  0.0000
  334TMC3  HA46 4890   2.193   0.109   3.552  0.0000  0.0000  0.0000
  334TMC3  HA47 4891   2.388   0.381   3.825  0.0000  0.0000  0.0000
  334TMC3  HA48 4892   2.352   0.464   3.404  0.0000  0.0000  0.0000
  334TMC3   O49 4893   2.230   0.139   3.289  0.0000  0.0000  0.0000
  334TMC3   O50 4894   2.276   0.166   3.926  0.0000  0.0000  0.0000
  334TMC3   O51 4895   2.476   0.633   3.534  0.0000  0.0000  0.0000
  335TMC3  CA37 4896   2.351  -0.410   5.978  0.0000  0.0000  0.0000
  335TMC3  CA38 4897   2.365  -0.377   6.114  0.0000  0.0000  0.0000
  335TMC3  CA39 4898   2.375  -0.243   6.152  0.0000  0.0000  0.0000
  335TMC3  CA40 4899   2.366  -0.141   6.060  0.0000  0.0000  0.0000
  335TMC3  CA41 4900   2.348  -0.172   5.929  0.0000  0.0000  0.0000
  335TMC3  CA42 4901   2.332  -0.304   5.888  0.0000  0.0000  0.0000
  335TMC3  CB43 4902   2.333  -0.550   5.940  0.0000  0.0000  0.0000
  335TMC3  CB44 4903   2.422  -0.209   6.298  0.0000  0.0000  0.0000
  335TMC3  CB45 4904   2.323  -0.060   5.831  0.0000  0.0000  0.0000
  335TMC3  HA46 4905   2.383  -0.456   6.186  0.0000  0.0000  0.0000
  335TMC3  HA47 4906   2.372  -0.039   6.095  0.0000  0.0000  0.0000
  335TMC3  HA48 4907   2.312  -0.317   5.782  0.0000  0.0000  0.0000
  335TMC3   O49 4908   2.371  -0.639   6.013  0.0000  0.0000  0.0000
  335TMC3   O50 4909   2.397  -0.097   6.335  0.0000  0.0000  0.0000
  335TMC3   O51 4910   2.330  -0.079   5.710  0.0000  0.0000  0.0000
  336TMC3  CA37 4911   1.638  -1.081   4.683  0.0000  0.0000  0.0000
  336TMC3  CA38 4912   1.511  -1.143   4.681  0.0000  0.0000  0.0000
  336TMC3  CA39 4913   1.479  -1.223   4.573  0.0000  0.0000  0.0000
  336TMC3  CA40 4914   1.566  -1.230   4.471  0.0000  0.0000  0.0000
  336TMC3  CA41 4915   1.698  -1.183   4.474  0.0000  0.0000  0.0000
  336TMC3  CA42 4916   1.734  -1.107   4.587  0.0000  0.0000  0.0000
  336TMC3  CB43 4917   1.672  -0.979   4.792  0.0000  0.0000  0.0000
  336TMC3  CB44 4918   1.367  -1.315   4.590  0.0000  0.0000  0.0000
  336TMC3  CB45 4919   1.797  -1.206   4.354  0.0000  0.0000  0.0000
  336TMC3  HA46 4920   1.448  -1.136   4.769  0.0000  0.0000  0.0000
  336TMC3  HA47 4921   1.544  -1.288   4.382  0.0000  0.0000  0.0000
  336TMC3  HA48 4922   1.829  -1.054   4.591  0.0000  0.0000  0.0000
  336TMC3   O49 4923   1.754  -0.990   4.882  0.0000  0.0000  0.0000
  336TMC3   O50 4924   1.269  -1.272   4.651  0.0000  0.0000  0.0000
  336TMC3   O51 4925   1.797  -1.323   4.311  0.0000  0.0000  0.0000
  337TMC3  CA37 4926   1.727  -0.953   5.794  0.0000  0.0000  0.0000
  337TMC3  CA38 4927   1.674  -0.823   5.773  0.0000  0.0000  0.0000
  337TMC3  CA39 4928   1.745  -0.717   5.811  0.0000  0.0000  0.0000
  337TMC3  CA40 4929   1.874  -0.728   5.869  0.0000  0.0000  0.0000
  337TMC3  CA41 4930   1.926  -0.854   5.891  0.0000  0.0000  0.0000
  337TMC3  CA42 4931   1.849  -0.967   5.854  0.0000  0.0000  0.0000
  337TMC3  CB43 4932   1.672  -1.076   5.728  0.0000  0.0000  0.0000
  337TMC3  CB44 4933   1.685  -0.574   5.800  0.0000  0.0000  0.0000
  337TMC3  CB45 4934   2.054  -0.865   5.973  0.0000  0.0000  0.0000
  337TMC3  HA46 4935   1.576  -0.811   5.727  0.0000  0.0000  0.0000
  337TMC3  HA47 4936   1.931  -0.645   5.908  0.0000  0.0000  0.0000
  337TMC3  HA48 4937   1.890  -1.066   5.868  0.0000  0.0000  0.0000
  337TMC3   O49 4938   1.575  -1.067   5.661  0.0000  0.0000  0.0000
  337TMC3   O50 4939   1.773  -0.491   5.767  0.0000  0.0000  0.0000
  337TMC3   O51 4940   2.096  -0.771   6.031  0.0000  0.0000  0.0000
  338TMC3  CA37 4941   3.979  -0.814   5.652  0.0000  0.0000  0.0000
  338TMC3  CA38 4942   3.981  -0.682   5.606  0.0000  0.0000  0.0000
  338TMC3  CA39 4943   4.078  -0.652   5.506  0.0000  0.0000  0.0000
  338TMC3  CA40 4944   4.147  -0.753   5.442  0.0000  0.0000  0.0000
  338TMC3  CA41 4945   4.135  -0.883   5.484  0.0000  0.0000  0.0000
  338TMC3  CA42 4946   4.054  -0.913   5.591  0.0000  0.0000  0.0000
  338TMC3  CB43 4947   3.893  -0.848   5.766  0.0000  0.0000  0.0000
  338TMC3  CB44 4948   4.101  -0.506   5.461  0.0000  0.0000  0.0000
  338TMC3  CB45 4949   4.192  -0.989   5.395  0.0000  0.0000  0.0000
  338TMC3  HA46 4950   3.922  -0.606   5.658  0.0000  0.0000  0.0000
  338TMC3  HA47 4951   4.207  -0.738   5.353  0.0000  0.0000  0.0000
  338TMC3  HA48 4952   4.050  -1.018   5.617  0.0000  0.0000  0.0000
  338TMC3   O49 4953   3.818  -0.764   5.815  0.0000  0.0000  0.0000
  338TMC3   O50 4954   4.027  -0.424   5.517  0.0000  0.0000  0.0000
  338TMC3   O51 4955   4.213  -0.971   5.280  0.0000  0.0000  0.0000
  339TMC3  CA37 4956   2.368  -0.694   3.924  0.0000  0.0000  0.0000
  339TMC3  CA38 4957   2.324  -0.815   3.966  0.0000  0.0000  0.0000
  339TMC3  CA39 4958   2.406  -0.926   3.991  0.0000  0.0000  0.0000
  339TMC3  CA40 4959   2.548  -0.900   3.979  0.0000  0.0000  0.0000
  339TMC3  CA41 4960   2.594  -0.777   3.932  0.0000  0.0000  0.0000
  339TMC3  CA42 4961   2.501  -0.678   3.902  0.0000  0.0000  0.0000
  339TMC3  CB43 4962   2.266  -0.585   3.915  0.0000  0.0000  0.0000
  339TMC3  CB44 4963   2.350  -1.060   4.033  0.0000  0.0000  0.0000
  339TMC3  CB45 4964   2.741  -0.751   3.922  0.0000  0.0000  0.0000
  339TMC3  HA46 4965   2.216  -0.824   3.970  0.0000  0.0000  0.0000
  339TMC3  HA47 4966   2.614  -0.978   4.016  0.0000  0.0000  0.0000
  339TMC3  HA48 4967   2.543  -0.579   3.887  0.0000  0.0000  0.0000
  339TMC3   O49 4968   2.150  -0.614   3.912  0.0000  0.0000  0.0000
  339TMC3   O50 4969   2.434  -1.151   4.045  0.0000  0.0000  0.0000
  339TMC3   O51 4970   2.780  -0.637   3.900  0.0000  0.0000  0.0000
  340TMC3  CA37 4971   4.363  -0.345   4.779  0.0000  0.0000  0.0000
  340TMC3  CA38 4972   4.425  -0.468   4.796  0.0000  0.0000  0.0000
  340TMC3  CA39 4973   4.559  -0.469   4.839  0.0000  0.0000  0.0000
  340TMC3  CA40 4974   4.628  -0.355   4.862  0.0000  0.0000  0.0000
  340TMC3  CA41 4975   4.568  -0.228   4.843  0.0000  0.0000  0.0000
  340TMC3  CA42 4976   4.432  -0.227   4.808  0.0000  0.0000  0.0000
  340TMC3  CB43 4977   4.219  -0.341   4.740  0.0000  0.0000  0.0000
  340TMC3  CB44 4978   4.617  -0.598   4.887  0.0000  0.0000  0.0000
  340TMC3  CB45 4979   4.649  -0.110   4.873  0.0000  0.0000  0.0000
  340TMC3  HA46 4980   4.374  -0.564   4.792  0.0000  0.0000  0.0000
  340TMC3  HA47 4981   4.734  -0.361   4.884  0.0000  0.0000  0.0000
  340TMC3  HA48 4982   4.381  -0.133   4.791  0.0000  0.0000  0.0000
  340TMC3   O49 4983   4.151  -0.237   4.743  0.0000  0.0000  0.0000
  340TMC3   O50 4984   4.617  -0.699   4.815  0.0000  0.0000  0.0000
  340TMC3   O51 4985   4.770  -0.112   4.857  0.0000  0.0000  0.0000
  341TMC3  CA37 4986   2.700  -1.806   4.854  0.0000  0.0000  0.0000
  341TMC3  CA38 4987   2.703  -1.683   4.794  0.0000  0.0000  0.0000
  341TMC3  CA39 4988   2.827  -1.622   4.762  0.0000  0.0000  0.0000
  341TMC3  CA40 4989   2.942  -1.706   4.775  0.0000  0.0000  0.0000
  341TMC3  CA41 4990   2.942  -1.829   4.842  0.0000  0.0000  0.0000
  341TMC3  CA42 4991   2.821  -1.879   4.875  0.0000  0.0000  0.0000
  341TMC3  CB43 4992   2.570  -1.858   4.893  0.0000  0.0000  0.0000
  341TMC3  CB44 4993   2.836  -1.496   4.683  0.0000  0.0000  0.0000
  341TMC3  CB45 4994   3.050  -1.927   4.843  0.0000  0.0000  0.0000
  341TMC3  HA46 4995   2.609  -1.628   4.787  0.0000  0.0000  0.0000
  341TMC3  HA47 4996   3.043  -1.674   4.748  0.0000  0.0000  0.0000
  341TMC3  HA48 4997   2.807  -1.974   4.925  0.0000  0.0000  0.0000
  341TMC3   O49 4998   2.484  -1.773   4.922  0.0000  0.0000  0.0000
  341TMC3   O50 4999   2.943  -1.449   4.659  0.0000  0.0000  0.0000
  341TMC3   O51 5000   3.023  -2.050   4.861  0.0000  0.0000  0.0000
  342TMC3  CA37 5001   1.194  -0.706   5.138  0.0000  0.0000  0.0000
  342TMC3  CA38 5002   1.246  -0.603   5.211  0.0000  0.0000  0.0000
  342TMC3  CA39 5003   1.175  -0.480   5.223  0.0000  0.0000  0.0000
  342TMC3  CA40 5004   1.066  -0.461   5.148  0.0000  0.0000  0.0000
  342TMC3  CA41 5005   1.016  -0.554   5.062  0.0000  0.0000  0.0000
  342TMC3  CA42 5006   1.077  -0.683   5.060  0.0000  0.0000  0.0000
  342TMC3  CB43 5007   1.252  -0.839   5.116  0.0000  0.0000  0.0000
  342TMC3  CB44 5008   1.230  -0.376   5.310  0.0000  0.0000  0.0000
  342TMC3  CB45 5009   0.904  -0.519   4.968  0.0000  0.0000  0.0000
  342TMC3  HA46 5010   1.344  -0.602   5.258  0.0000  0.0000  0.0000
  342TMC3  HA47 5011   1.015  -0.367   5.166  0.0000  0.0000  0.0000
  342TMC3  HA48 5012   1.046  -0.752   4.982  0.0000  0.0000  0.0000
  342TMC3   O49 5013   1.214  -0.901   5.020  0.0000  0.0000  0.0000
  342TMC3   O50 5014   1.296  -0.402   5.408  0.0000  0.0000  0.0000
  342TMC3   O51 5015   0.839  -0.611   4.926  0.0000  0.0000  0.0000
  343TMC3  CA37 5016   2.996  -1.862   5.229  0.0000  0.0000  0.0000
  343TMC3  CA38 5017   3.128  -1.851   5.179  0.0000  0.0000  0.0000
  343TMC3  CA39 5018   3.215  -1.964   5.179  0.0000  0.0000  0.0000
  343TMC3  CA40 5019   3.166  -2.082   5.237  0.0000  0.0000  0.0000
  343TMC3  CA41 5020   3.042  -2.090   5.291  0.0000  0.0000  0.0000
  343TMC3  CA42 5021   2.954  -1.986   5.282  0.0000  0.0000  0.0000
  343TMC3  CB43 5022   2.922  -1.735   5.236  0.0000  0.0000  0.0000
  343TMC3  CB44 5023   3.355  -1.948   5.131  0.0000  0.0000  0.0000
  343TMC3  CB45 5024   2.981  -2.215   5.348  0.0000  0.0000  0.0000
  343TMC3  HA46 5025   3.164  -1.752   5.150  0.0000  0.0000  0.0000
  343TMC3  HA47 5026   3.224  -2.174   5.241  0.0000  0.0000  0.0000
  343TMC3  HA48 5027   2.857  -1.986   5.331  0.0000  0.0000  0.0000
  343TMC3   O49 5028   2.970  -1.624   5.228  0.0000  0.0000  0.0000
  343TMC3   O50 5029   3.384  -1.842   5.071  0.0000  0.0000  0.0000
  343TMC3   O51 5030   2.857  -2.223   5.363  0.0000  0.0000  0.0000
  344TMC3  CA37 5031   1.613  -0.197   4.868  0.0000  0.0000  0.0000
  344TMC3  CA38 5032   1.699  -0.293   4.916  0.0000  0.0000  0.0000
  344TMC3  CA39 5033   1.750  -0.283   5.044  0.0000  0.0000  0.0000
  344TMC3  CA40 5034   1.724  -0.174   5.124  0.0000  0.0000  0.0000
  344TMC3  CA41 5035   1.643  -0.066   5.072  0.0000  0.0000  0.0000
  344TMC3  CA42 5036   1.594  -0.077   4.945  0.0000  0.0000  0.0000
  344TMC3  CB43 5037   1.552  -0.204   4.735  0.0000  0.0000  0.0000
  344TMC3  CB44 5038   1.832  -0.396   5.097  0.0000  0.0000  0.0000
  344TMC3  CB45 5039   1.612   0.051   5.155  0.0000  0.0000  0.0000
  344TMC3  HA46 5040   1.733  -0.368   4.845  0.0000  0.0000  0.0000
  344TMC3  HA47 5041   1.767  -0.161   5.223  0.0000  0.0000  0.0000
  344TMC3  HA48 5042   1.530   0.001   4.906  0.0000  0.0000  0.0000
  344TMC3   O49 5043   1.498  -0.104   4.691  0.0000  0.0000  0.0000
  344TMC3   O50 5044   1.932  -0.372   5.162  0.0000  0.0000  0.0000
  344TMC3   O51 5045   1.518   0.126   5.132  0.0000  0.0000  0.0000
  345TMC3  CA37 5046   4.548  -1.031   5.553  0.0000  0.0000  0.0000
  345TMC3  CA38 5047   4.607  -1.124   5.637  0.0000  0.0000  0.0000
  345TMC3  CA39 5048   4.687  -1.224   5.580  0.0000  0.0000  0.0000
  345TMC3  CA40 5049   4.687  -1.240   5.442  0.0000  0.0000  0.0000
  345TMC3  CA41 5050   4.616  -1.151   5.362  0.0000  0.0000  0.0000
  345TMC3  CA42 5051   4.557  -1.041   5.416  0.0000  0.0000  0.0000
  345TMC3  CB43 5052   4.497  -0.908   5.614  0.0000  0.0000  0.0000
  345TMC3  CB44 5053   4.755  -1.319   5.669  0.0000  0.0000  0.0000
  345TMC3  CB45 5054   4.616  -1.176   5.215  0.0000  0.0000  0.0000
  345TMC3  HA46 5055   4.617  -1.110   5.744  0.0000  0.0000  0.0000
  345TMC3  HA47 5056   4.732  -1.327   5.397  0.0000  0.0000  0.0000
  345TMC3  HA48 5057   4.511  -0.963   5.356  0.0000  0.0000  0.0000
  345TMC3   O49 5058   4.438  -0.825   5.543  0.0000  0.0000  0.0000
  345TMC3   O50 5059   4.706  -1.358   5.770  0.0000  0.0000  0.0000
  345TMC3   O51 5060   4.612  -1.286   5.167  0.0000  0.0000  0.0000
  346TMC3  CA37 5061   3.645  -1.926   4.105  0.0000  0.0000  0.0000
  346TMC3  CA38 5062   3.755  -1.980   4.174  0.0000  0.0000  0.0000
  346TMC3  CA39 5063   3.747  -2.073   4.282  0.0000  0.0000  0.0000
  346TMC3  CA40 5064   3.619  -2.113   4.319  0.0000  0.0000  0.0000
  346TMC3  CA41 5065   3.507  -2.063   4.252  0.0000  0.0000  0.0000
  346TMC3  CA42 5066   3.520  -1.971   4.143  0.0000  0.0000  0.0000
  346TMC3  CB43 5067   3.657  -1.845   3.984  0.0000  0.0000  0.0000
  346TMC3  CB44 5068   3.863  -2.125   4.354  0.0000  0.0000  0.0000
  346TMC3  CB45 5069   3.369  -2.092   4.295  0.0000  0.0000  0.0000
  346TMC3  HA46 5070   3.852  -1.947   4.138  0.0000  0.0000  0.0000
  346TMC3  HA47 5071   3.604  -2.182   4.402  0.0000  0.0000  0.0000
  346TMC3  HA48 5072   3.433  -1.924   4.098  0.0000  0.0000  0.0000
  346TMC3   O49 5073   3.574  -1.844   3.896  0.0000  0.0000  0.0000
  346TMC3   O50 5074   3.855  -2.229   4.418  0.0000  0.0000  0.0000
  346TMC3   O51 5075   3.271  -2.022   4.274  0.0000  0.0000  0.0000
  347TMC2   C20 5076   2.872  -1.816   4.475  0.0000  0.0000  0.0000
  347TMC2  CA21 5077   2.936  -1.700   4.405  0.0000  0.0000  0.0000
  347TMC2  CA22 5078   2.866  -1.613   4.310  0.0000  0.0000  0.0000
  347TMC2  CA23 5079   2.937  -1.508   4.249  0.0000  0.0000  0.0000
  347TMC2  CA24 5080   3.072  -1.480   4.270  0.0000  0.0000  0.0000
  347TMC2  CA25 5081   3.139  -1.563   4.369  0.0000  0.0000  0.0000
  347TMC2  CA26 5082   3.071  -1.670   4.427  0.0000  0.0000  0.0000
  347TMC2  CB27 5083   2.862  -1.426   4.145  0.0000  0.0000  0.0000
  347TMC2  CB28 5084   3.281  -1.544   4.408  0.0000  0.0000  0.0000
  347TMC2  HA29 5085   2.762  -1.631   4.284  0.0000  0.0000  0.0000
  347TMC2  HA30 5086   3.119  -1.391   4.228  0.0000  0.0000  0.0000
  347TMC2  HA31 5087   3.118  -1.735   4.500  0.0000  0.0000  0.0000
  347TMC2  HO32 5088   2.705  -1.779   4.379  0.0000  0.0000  0.0000
  347TMC2   O33 5089   2.930  -1.882   4.554  0.0000  0.0000  0.0000
  347TMC2   O34 5090   2.771  -1.486   4.087  0.0000  0.0000  0.0000
  347TMC2   O35 5091   3.341  -1.637   4.452  0.0000  0.0000  0.0000
  347TMC2  OH36 5092   2.748  -1.845   4.436  0.0000  0.0000  0.0000
  348TMC3  CA37 5093   3.700  -0.058   5.845  0.0000  0.0000  0.0000
  348TMC3  CA38 5094   3.841  -0.055   5.830  0.0000  0.0000  0.0000
  348TMC3  CA39 5095   3.909  -0.169   5.779  0.0000  0.0000  0.0000
  348TMC3  CA40 5096   3.840  -0.282   5.751  0.0000  0.0000  0.0000
  348TMC3  CA41 5097   3.702  -0.292   5.770  0.0000  0.0000  0.0000
  348TMC3  CA42 5098   3.632  -0.177   5.807  0.0000  0.0000  0.0000
  348TMC3  CB43 5099   3.618   0.052   5.887  0.0000  0.0000  0.0000
  348TMC3  CB44 5100   4.056  -0.167   5.769  0.0000  0.0000  0.0000
  348TMC3  CB45 5101   3.629  -0.415   5.714  0.0000  0.0000  0.0000
  348TMC3  HA46 5102   3.892   0.037   5.861  0.0000  0.0000  0.0000
  348TMC3  HA47 5103   3.904  -0.364   5.720  0.0000  0.0000  0.0000
  348TMC3  HA48 5104   3.524  -0.174   5.799  0.0000  0.0000  0.0000
  348TMC3   O49 5105   3.495   0.041   5.899  0.0000  0.0000  0.0000
  348TMC3   O50 5106   4.122  -0.273   5.772  0.0000  0.0000  0.0000
  348TMC3   O51 5107   3.692  -0.511   5.664  0.0000  0.0000  0.0000
  349TMC3  CA37 5108   2.944  -0.793   4.585  0.0000  0.0000  0.0000
  349TMC3  CA38 5109   3.079  -0.790   4.619  0.0000  0.0000  0.0000
  349TMC3  CA39 5110   3.142  -0.677   4.670  0.0000  0.0000  0.0000
  349TMC3  CA40 5111   3.058  -0.575   4.714  0.0000  0.0000  0.0000
  349TMC3  CA41 5112   2.920  -0.583   4.697  0.0000  0.0000  0.0000
  349TMC3  CA42 5113   2.863  -0.687   4.628  0.0000  0.0000  0.0000
  349TMC3  CB43 5114   2.900  -0.908   4.502  0.0000  0.0000  0.0000
  349TMC3  CB44 5115   3.287  -0.679   4.689  0.0000  0.0000  0.0000
  349TMC3  CB45 5116   2.827  -0.465   4.726  0.0000  0.0000  0.0000
  349TMC3  HA46 5117   3.142  -0.871   4.583  0.0000  0.0000  0.0000
  349TMC3  HA47 5118   3.111  -0.492   4.761  0.0000  0.0000  0.0000
  349TMC3  HA48 5119   2.758  -0.685   4.602  0.0000  0.0000  0.0000
  349TMC3   O49 5120   2.972  -0.968   4.422  0.0000  0.0000  0.0000
  349TMC3   O50 5121   3.330  -0.768   4.764  0.0000  0.0000  0.0000
  349TMC3   O51 5122   2.712  -0.455   4.675  0.0000  0.0000  0.0000
  350TMC3  CA37 5123   2.278  -0.289   3.401  0.0000  0.0000  0.0000
  350TMC3  CA38 5124   2.168  -0.329   3.480  0.0000  0.0000  0.0000
  350TMC3  CA39 5125   2.071  -0.413   3.425  0.0000  0.0000  0.0000
  350TMC3  CA40 5126   2.087  -0.449   3.289  0.0000  0.0000  0.0000
  350TMC3  CA41 5127   2.198  -0.413   3.216  0.0000  0.0000  0.0000
  350TMC3  CA42 5128   2.293  -0.337   3.275  0.0000  0.0000  0.0000
  350TMC3  CB43 5129   2.379  -0.185   3.449  0.0000  0.0000  0.0000
  350TMC3  CB44 5130   1.945  -0.438   3.501  0.0000  0.0000  0.0000
  350TMC3  CB45 5131   2.213  -0.455   3.070  0.0000  0.0000  0.0000
  350TMC3  HA46 5132   2.158  -0.284   3.578  0.0000  0.0000  0.0000
  350TMC3  HA47 5133   2.004  -0.499   3.240  0.0000  0.0000  0.0000
  350TMC3  HA48 5134   2.375  -0.303   3.214  0.0000  0.0000  0.0000
  350TMC3   O49 5135   2.335  -0.112   3.533  0.0000  0.0000  0.0000
  350TMC3   O50 5136   1.901  -0.354   3.581  0.0000  0.0000  0.0000
  350TMC3   O51 5137   2.112  -0.445   2.995  0.0000  0.0000  0.0000
  351TMC3  CA37 5138   3.931  -0.280   6.100  0.0000  0.0000  0.0000
  351TMC3  CA38 5139   4.026  -0.359   6.040  0.0000  0.0000  0.0000
  351TMC3  CA39 5140   4.000  -0.491   5.999  0.0000  0.0000  0.0000
  351TMC3  CA40 5141   3.876  -0.549   6.039  0.0000  0.0000  0.0000
  351TMC3  CA41 5142   3.773  -0.465   6.082  0.0000  0.0000  0.0000
  351TMC3  CA42 5143   3.805  -0.334   6.118  0.0000  0.0000  0.0000
  351TMC3  CB43 5144   3.952  -0.133   6.133  0.0000  0.0000  0.0000
  351TMC3  CB44 5145   4.111  -0.582   5.954  0.0000  0.0000  0.0000
  351TMC3  CB45 5146   3.633  -0.509   6.092  0.0000  0.0000  0.0000
  351TMC3  HA46 5147   4.116  -0.302   6.020  0.0000  0.0000  0.0000
  351TMC3  HA47 5148   3.857  -0.656   6.030  0.0000  0.0000  0.0000
  351TMC3  HA48 5149   3.726  -0.275   6.163  0.0000  0.0000  0.0000
  351TMC3   O49 5150   3.862  -0.051   6.119  0.0000  0.0000  0.0000
  351TMC3   O50 5151   4.096  -0.703   5.941  0.0000  0.0000  0.0000
  351TMC3   O51 5152   3.548  -0.440   6.148  0.0000  0.0000  0.0000
  352TMC2   C20 5153   2.439  -1.699   4.540  0.0000  0.0000  0.0000
  352TMC2  CA21 5154   2.309  -1.613   4.526  0.0000  0.0000  0.0000
  352TMC2  CA22 5155   2.319  -1.478   4.499  0.0000  0.0000  0.0000
  352TMC2  CA23 5156   2.213  -1.393   4.491  0.0000  0.0000  0.0000
  352TMC2  CA24 5157   2.085  -1.450   4.495  0.0000  0.0000  0.0000
  352TMC2  CA25 5158   2.072  -1.594   4.511  0.0000  0.0000  0.0000
  352TMC2  CA26 5159   2.186  -1.680   4.517  0.0000  0.0000  0.0000
  352TMC2  CB27 5160   2.227  -1.246   4.472  0.0000  0.0000  0.0000
  352TMC2  CB28 5161   1.933  -1.654   4.535  0.0000  0.0000  0.0000
  352TMC2  HA29 5162   2.419  -1.436   4.486  0.0000  0.0000  0.0000
  352TMC2  HA30 5163   1.999  -1.385   4.503  0.0000  0.0000  0.0000
  352TMC2  HA31 5164   2.186  -1.788   4.524  0.0000  0.0000  0.0000
  352TMC2  HO32 5165   2.344  -1.804   4.647  0.0000  0.0000  0.0000
  352TMC2   O33 5166   2.553  -1.659   4.518  0.0000  0.0000  0.0000
  352TMC2   O34 5167   2.127  -1.174   4.480  0.0000  0.0000  0.0000
  352TMC2   O35 5168   1.913  -1.768   4.573  0.0000  0.0000  0.0000
  352TMC2  OH36 5169   2.423  -1.821   4.593  0.0000  0.0000  0.0000
  353TMC2   C20 5170   4.170  -1.699   4.666  0.0000  0.0000  0.0000
  353TMC2  CA21 5171   4.249  -1.579   4.695  0.0000  0.0000  0.0000
  353TMC2  CA22 5172   4.336  -1.542   4.593  0.0000  0.0000  0.0000
  353TMC2  CA23 5173   4.424  -1.436   4.611  0.0000  0.0000  0.0000
  353TMC2  CA24 5174   4.437  -1.377   4.737  0.0000  0.0000  0.0000
  353TMC2  CA25 5175   4.348  -1.417   4.842  0.0000  0.0000  0.0000
  353TMC2  CA26 5176   4.246  -1.509   4.810  0.0000  0.0000  0.0000
  353TMC2  CB27 5177   4.513  -1.388   4.494  0.0000  0.0000  0.0000
  353TMC2  CB28 5178   4.367  -1.360   4.972  0.0000  0.0000  0.0000
  353TMC2  HA29 5179   4.340  -1.591   4.496  0.0000  0.0000  0.0000
  353TMC2  HA30 5180   4.507  -1.296   4.756  0.0000  0.0000  0.0000
  353TMC2  HA31 5181   4.179  -1.546   4.888  0.0000  0.0000  0.0000
  353TMC2  HO32 5182   4.190  -1.726   4.850  0.0000  0.0000  0.0000
  353TMC2   O33 5183   4.153  -1.742   4.551  0.0000  0.0000  0.0000
  353TMC2   O34 5184   4.511  -1.449   4.388  0.0000  0.0000  0.0000
  353TMC2   O35 5185   4.413  -1.243   4.978  0.0000  0.0000  0.0000
  353TMC2  OH36 5186   4.138  -1.765   4.777  0.0000  0.0000  0.0000
  354TMC2   C20 5187   2.746  -1.548   5.605  0.0000  0.0000  0.0000
  354TMC2  CA21 5188   2.735  -1.408   5.636  0.0000  0.0000  0.0000
  354TMC2  CA22 5189   2.858  -1.337   5.640  0.0000  0.0000  0.0000
  354TMC2  CA23 5190   2.857  -1.196   5.650  0.0000  0.0000  0.0000
  354TMC2  CA24 5191   2.736  -1.128   5.659  0.0000  0.0000  0.0000
  354TMC2  CA25 5192   2.611  -1.200   5.658  0.0000  0.0000  0.0000
  354TMC2  CA26 5193   2.611  -1.343   5.644  0.0000  0.0000  0.0000
  354TMC2  CB27 5194   2.988  -1.113   5.634  0.0000  0.0000  0.0000
  354TMC2  CB28 5195   2.480  -1.127   5.648  0.0000  0.0000  0.0000
  354TMC2  HA29 5196   2.956  -1.383   5.633  0.0000  0.0000  0.0000
  354TMC2  HA30 5197   2.745  -1.020   5.672  0.0000  0.0000  0.0000
  354TMC2  HA31 5198   2.518  -1.398   5.650  0.0000  0.0000  0.0000
  354TMC2  HO32 5199   2.580  -1.564   5.684  0.0000  0.0000  0.0000
  354TMC2   O33 5200   2.854  -1.591   5.562  0.0000  0.0000  0.0000
  354TMC2   O34 5201   2.995  -1.000   5.679  0.0000  0.0000  0.0000
  354TMC2   O35 5202   2.390  -1.198   5.618  0.0000  0.0000  0.0000
  354TMC2  OH36 5203   2.643  -1.622   5.638  0.0000  0.0000  0.0000
  355TMC3  CA37 5204   2.402   1.641   4.947  0.0000  0.0000  0.0000
  355TMC3  CA38 5205   2.364   1.677   5.081  0.0000  0.0000  0.0000
  355TMC3  CA39 5206   2.231   1.708   5.117  0.0000  0.0000  0.0000
  355TMC3  CA40 5207   2.134   1.704   5.014  0.0000  0.0000  0.0000
  355TMC3  CA41 5208   2.165   1.666   4.887  0.0000  0.0000  0.0000
  355TMC3  CA42 5209   2.295   1.625   4.857  0.0000  0.0000  0.0000
  355TMC3  CB43 5210   2.542   1.619   4.908  0.0000  0.0000  0.0000
  355TMC3  CB44 5211   2.190   1.749   5.258  0.0000  0.0000  0.0000
  355TMC3  CB45 5212   2.064   1.644   4.783  0.0000  0.0000  0.0000
  355TMC3  HA46 5213   2.442   1.673   5.156  0.0000  0.0000  0.0000
  355TMC3  HA47 5214   2.031   1.704   5.049  0.0000  0.0000  0.0000
  355TMC3  HA48 5215   2.319   1.591   4.756  0.0000  0.0000  0.0000
  355TMC3   O49 5216   2.568   1.587   4.793  0.0000  0.0000  0.0000
  355TMC3   O50 5217   2.075   1.730   5.293  0.0000  0.0000  0.0000
  355TMC3   O51 5218   1.954   1.607   4.815  0.0000  0.0000  0.0000
  356TMC2   C20 5219   2.452  -1.435   4.887  0.0000  0.0000  0.0000
  356TMC2  CA21 5220   2.324  -1.487   4.939  0.0000  0.0000  0.0000
  356TMC2  CA22 5221   2.204  -1.463   4.870  0.0000  0.0000  0.0000
  356TMC2  CA23 5222   2.082  -1.509   4.924  0.0000  0.0000  0.0000
  356TMC2  CA24 5223   2.084  -1.566   5.046  0.0000  0.0000  0.0000
  356TMC2  CA25 5224   2.203  -1.603   5.113  0.0000  0.0000  0.0000
  356TMC2  CA26 5225   2.324  -1.558   5.056  0.0000  0.0000  0.0000
  356TMC2  CB27 5226   1.944  -1.492   4.859  0.0000  0.0000  0.0000
  356TMC2  CB28 5227   2.194  -1.665   5.252  0.0000  0.0000  0.0000
  356TMC2  HA29 5228   2.200  -1.413   4.773  0.0000  0.0000  0.0000
  356TMC2  HA30 5229   1.989  -1.584   5.094  0.0000  0.0000  0.0000
  356TMC2  HA31 5230   2.413  -1.602   5.100  0.0000  0.0000  0.0000
  356TMC2  HO32 5231   2.511  -1.481   5.049  0.0000  0.0000  0.0000
  356TMC2   O33 5232   2.450  -1.404   4.764  0.0000  0.0000  0.0000
  356TMC2   O34 5233   1.909  -1.387   4.806  0.0000  0.0000  0.0000
  356TMC2   O35 5234   2.087  -1.716   5.279  0.0000  0.0000  0.0000
  356TMC2  OH36 5235   2.556  -1.438   4.974  0.0000  0.0000  0.0000
  357TMC3  CA37 5236   3.417  -1.438   5.782  0.0000  0.0000  0.0000
  357TMC3  CA38 5237   3.311  -1.527   5.803  0.0000  0.0000  0.0000
  357TMC3  CA39 5238   3.193  -1.493   5.867  0.0000  0.0000  0.0000
  357TMC3  CA40 5239   3.181  -1.360   5.902  0.0000  0.0000  0.0000
  357TMC3  CA41 5240   3.288  -1.271   5.881  0.0000  0.0000  0.0000
  357TMC3  CA42 5241   3.405  -1.306   5.816  0.0000  0.0000  0.0000
  357TMC3  CB43 5242   3.544  -1.483   5.708  0.0000  0.0000  0.0000
  357TMC3  CB44 5243   3.075  -1.586   5.872  0.0000  0.0000  0.0000
  357TMC3  CB45 5244   3.268  -1.136   5.940  0.0000  0.0000  0.0000
  357TMC3  HA46 5245   3.326  -1.631   5.778  0.0000  0.0000  0.0000
  357TMC3  HA47 5246   3.089  -1.331   5.953  0.0000  0.0000  0.0000
  357TMC3  HA48 5247   3.490  -1.239   5.811  0.0000  0.0000  0.0000
  357TMC3   O49 5248   3.623  -1.402   5.662  0.0000  0.0000  0.0000
  357TMC3   O50 5249   2.965  -1.536   5.868  0.0000  0.0000  0.0000
  357TMC3   O51 5250   3.155  -1.097   5.960  0.0000  0.0000  0.0000
  358TMC3  CA37 5251   2.733  -2.146   4.481  0.0000  0.0000  0.0000
  358TMC3  CA38 5252   2.804  -2.121   4.363  0.0000  0.0000  0.0000
  358TMC3  CA39 5253   2.740  -2.101   4.237  0.0000  0.0000  0.0000
  358TMC3  CA40 5254   2.603  -2.088   4.239  0.0000  0.0000  0.0000
  358TMC3  CA41 5255   2.526  -2.109   4.353  0.0000  0.0000  0.0000
  358TMC3  CA42 5256   2.593  -2.136   4.476  0.0000  0.0000  0.0000
  358TMC3  CB43 5257   2.798  -2.171   4.614  0.0000  0.0000  0.0000
  358TMC3  CB44 5258   2.811  -2.112   4.102  0.0000  0.0000  0.0000
  358TMC3  CB45 5259   2.375  -2.085   4.346  0.0000  0.0000  0.0000
  358TMC3  HA46 5260   2.913  -2.126   4.362  0.0000  0.0000  0.0000
  358TMC3  HA47 5261   2.558  -2.054   4.146  0.0000  0.0000  0.0000
  358TMC3  HA48 5262   2.533  -2.163   4.562  0.0000  0.0000  0.0000
  358TMC3   O49 5263   2.731  -2.128   4.709  0.0000  0.0000  0.0000
  358TMC3   O50 5264   2.739  -2.117   4.001  0.0000  0.0000  0.0000
  358TMC3   O51 5265   2.296  -2.150   4.410  0.0000  0.0000  0.0000
  359TMC3  CA37 5266   2.657   0.958   3.368  0.0000  0.0000  0.0000
  359TMC3  CA38 5267   2.685   1.093   3.368  0.0000  0.0000  0.0000
  359TMC3  CA39 5268   2.576   1.179   3.365  0.0000  0.0000  0.0000
  359TMC3  CA40 5269   2.442   1.138   3.366  0.0000  0.0000  0.0000
  359TMC3  CA41 5270   2.419   0.999   3.376  0.0000  0.0000  0.0000
  359TMC3  CA42 5271   2.528   0.908   3.375  0.0000  0.0000  0.0000
  359TMC3  CB43 5272   2.777   0.877   3.373  0.0000  0.0000  0.0000
  359TMC3  CB44 5273   2.601   1.328   3.396  0.0000  0.0000  0.0000
  359TMC3  CB45 5274   2.281   0.942   3.383  0.0000  0.0000  0.0000
  359TMC3  HA46 5275   2.787   1.130   3.362  0.0000  0.0000  0.0000
  359TMC3  HA47 5276   2.365   1.214   3.373  0.0000  0.0000  0.0000
  359TMC3  HA48 5277   2.513   0.801   3.362  0.0000  0.0000  0.0000
  359TMC3   O49 5278   2.883   0.903   3.325  0.0000  0.0000  0.0000
  359TMC3   O50 5279   2.508   1.403   3.412  0.0000  0.0000  0.0000
  359TMC3   O51 5280   2.177   1.007   3.395  0.0000  0.0000  0.0000
  360TMC2   C20 5281   3.299   0.544   5.325  0.0000  0.0000  0.0000
  360TMC2  CA21 5282   3.395   0.597   5.227  0.0000  0.0000  0.0000
  360TMC2  CA22 5283   3.468   0.719   5.243  0.0000  0.0000  0.0000
  360TMC2  CA23 5284   3.554   0.766   5.148  0.0000  0.0000  0.0000
  360TMC2  CA24 5285   3.576   0.692   5.027  0.0000  0.0000  0.0000
  360TMC2  CA25 5286   3.506   0.572   5.006  0.0000  0.0000  0.0000
  360TMC2  CA26 5287   3.415   0.526   5.107  0.0000  0.0000  0.0000
  360TMC2  CB27 5288   3.627   0.896   5.162  0.0000  0.0000  0.0000
  360TMC2  CB28 5289   3.540   0.501   4.883  0.0000  0.0000  0.0000
  360TMC2  HA29 5290   3.457   0.773   5.336  0.0000  0.0000  0.0000
  360TMC2  HA30 5291   3.644   0.731   4.952  0.0000  0.0000  0.0000
  360TMC2  HA31 5292   3.363   0.432   5.095  0.0000  0.0000  0.0000
  360TMC2  HO32 5293   3.397   0.633   5.444  0.0000  0.0000  0.0000
  360TMC2   O33 5294   3.203   0.467   5.298  0.0000  0.0000  0.0000
  360TMC2   O34 5295   3.580   0.987   5.233  0.0000  0.0000  0.0000
  360TMC2   O35 5296   3.649   0.504   4.835  0.0000  0.0000  0.0000
  360TMC2  OH36 5297   3.314   0.584   5.449  0.0000  0.0000  0.0000
  361TMC3  CA37 5298   4.643  -2.024   4.437  0.0000  0.0000  0.0000
  361TMC3  CA38 5299   4.575  -2.126   4.504  0.0000  0.0000  0.0000
  361TMC3  CA39 5300   4.505  -2.110   4.618  0.0000  0.0000  0.0000
  361TMC3  CA40 5301   4.509  -1.988   4.685  0.0000  0.0000  0.0000
  361TMC3  CA41 5302   4.581  -1.878   4.630  0.0000  0.0000  0.0000
  361TMC3  CA42 5303   4.648  -1.903   4.506  0.0000  0.0000  0.0000
  361TMC3  CB43 5304   4.699  -2.038   4.302  0.0000  0.0000  0.0000
  361TMC3  CB44 5305   4.434  -2.223   4.679  0.0000  0.0000  0.0000
  361TMC3  CB45 5306   4.600  -1.757   4.706  0.0000  0.0000  0.0000
  361TMC3  HA46 5307   4.581  -2.227   4.464  0.0000  0.0000  0.0000
  361TMC3  HA47 5308   4.449  -1.973   4.774  0.0000  0.0000  0.0000
  361TMC3  HA48 5309   4.718  -1.828   4.470  0.0000  0.0000  0.0000
  361TMC3   O49 5310   4.711  -2.154   4.262  0.0000  0.0000  0.0000
  361TMC3   O50 5311   4.446  -2.250   4.797  0.0000  0.0000  0.0000
  361TMC3   O51 5312   4.523  -1.737   4.793  0.0000  0.0000  0.0000
  362TMC2   C20 5313   4.213   0.677   5.596  0.0000  0.0000  0.0000
  362TMC2  CA21 5314   4.348   0.629   5.551  0.0000  0.0000  0.0000
  362TMC2  CA22 5315   4.357   0.527   5.454  0.0000  0.0000  0.0000
  362TMC2  CA23 5316   4.476   0.497   5.390  0.0000  0.0000  0.0000
  362TMC2  CA24 5317   4.599   0.550   5.434  0.0000  0.0000  0.0000
  362TMC2  CA25 5318   4.591   0.651   5.543  0.0000  0.0000  0.0000
  362TMC2  CA26 5319   4.468   0.684   5.598  0.0000  0.0000  0.0000
  362TMC2  CB27 5320   4.464   0.406   5.269  0.0000  0.0000  0.0000
  362TMC2  CB28 5321   4.713   0.722   5.597  0.0000  0.0000  0.0000
  362TMC2  HA29 5322   4.263   0.484   5.421  0.0000  0.0000  0.0000
  362TMC2  HA30 5323   4.692   0.508   5.396  0.0000  0.0000  0.0000
  362TMC2  HA31 5324   4.457   0.758   5.677  0.0000  0.0000  0.0000
  362TMC2  HO32 5325   4.141   0.507   5.559  0.0000  0.0000  0.0000
  362TMC2   O33 5326   4.197   0.786   5.645  0.0000  0.0000  0.0000
  362TMC2   O34 5327   4.369   0.328   5.263  0.0000  0.0000  0.0000
  362TMC2   O35 5328   4.704   0.804   5.688  0.0000  0.0000  0.0000
  362TMC2  OH36 5329   4.106   0.596   5.578  0.0000  0.0000  0.0000
  363TMC3  CA37 5330   2.415   0.528   5.363  0.0000  0.0000  0.0000
  363TMC3  CA38 5331   2.422   0.431   5.262  0.0000  0.0000  0.0000
  363TMC3  CA39 5332   2.487   0.456   5.142  0.0000  0.0000  0.0000
  363TMC3  CA40 5333   2.514   0.590   5.114  0.0000  0.0000  0.0000
  363TMC3  CA41 5334   2.492   0.690   5.204  0.0000  0.0000  0.0000
  363TMC3  CA42 5335   2.453   0.661   5.333  0.0000  0.0000  0.0000
  363TMC3  CB43 5336   2.374   0.493   5.498  0.0000  0.0000  0.0000
  363TMC3  CB44 5337   2.493   0.360   5.025  0.0000  0.0000  0.0000
  363TMC3  CB45 5338   2.510   0.832   5.159  0.0000  0.0000  0.0000
  363TMC3  HA46 5339   2.376   0.338   5.292  0.0000  0.0000  0.0000
  363TMC3  HA47 5340   2.555   0.612   5.016  0.0000  0.0000  0.0000
  363TMC3  HA48 5341   2.451   0.735   5.413  0.0000  0.0000  0.0000
  363TMC3   O49 5342   2.397   0.576   5.584  0.0000  0.0000  0.0000
  363TMC3   O50 5343   2.507   0.410   4.912  0.0000  0.0000  0.0000
  363TMC3   O51 5344   2.568   0.855   5.054  0.0000  0.0000  0.0000
  364TMC3  CA37 5345   4.237  -1.351   4.247  0.0000  0.0000  0.0000
  364TMC3  CA38 5346   4.244  -1.481   4.189  0.0000  0.0000  0.0000
  364TMC3  CA39 5347   4.154  -1.583   4.221  0.0000  0.0000  0.0000
  364TMC3  CA40 5348   4.064  -1.560   4.322  0.0000  0.0000  0.0000
  364TMC3  CA41 5349   4.059  -1.433   4.383  0.0000  0.0000  0.0000
  364TMC3  CA42 5350   4.144  -1.332   4.352  0.0000  0.0000  0.0000
  364TMC3  CB43 5351   4.341  -1.258   4.203  0.0000  0.0000  0.0000
  364TMC3  CB44 5352   4.156  -1.718   4.151  0.0000  0.0000  0.0000
  364TMC3  CB45 5353   3.950  -1.400   4.481  0.0000  0.0000  0.0000
  364TMC3  HA46 5354   4.318  -1.503   4.112  0.0000  0.0000  0.0000
  364TMC3  HA47 5355   3.999  -1.641   4.354  0.0000  0.0000  0.0000
  364TMC3  HA48 5356   4.145  -1.239   4.408  0.0000  0.0000  0.0000
  364TMC3   O49 5357   4.420  -1.287   4.122  0.0000  0.0000  0.0000
  364TMC3   O50 5358   4.066  -1.794   4.174  0.0000  0.0000  0.0000
  364TMC3   O51 5359   3.977  -1.328   4.575  0.0000  0.0000  0.0000
  365TMC3  CA37 5360   2.520  -0.703   5.206  0.0000  0.0000  0.0000
  365TMC3  CA38 5361   2.638  -0.638   5.233  0.0000  0.0000  0.0000
  365TMC3  CA39 5362   2.737  -0.635   5.133  0.0000  0.0000  0.0000
  365TMC3  CA40 5363   2.723  -0.700   5.016  0.0000  0.0000  0.0000
  365TMC3  CA41 5364   2.606  -0.770   4.991  0.0000  0.0000  0.0000
  365TMC3  CA42 5365   2.501  -0.767   5.087  0.0000  0.0000  0.0000
  365TMC3  CB43 5366   2.418  -0.727   5.310  0.0000  0.0000  0.0000
  365TMC3  CB44 5367   2.866  -0.573   5.170  0.0000  0.0000  0.0000
  365TMC3  CB45 5368   2.585  -0.833   4.861  0.0000  0.0000  0.0000
  365TMC3  HA46 5369   2.660  -0.589   5.327  0.0000  0.0000  0.0000
  365TMC3  HA47 5370   2.800  -0.710   4.941  0.0000  0.0000  0.0000
  365TMC3  HA48 5371   2.416  -0.829   5.062  0.0000  0.0000  0.0000
  365TMC3   O49 5372   2.361  -0.831   5.304  0.0000  0.0000  0.0000
  365TMC3   O50 5373   2.871  -0.503   5.273  0.0000  0.0000  0.0000
  365TMC3   O51 5374   2.686  -0.867   4.798  0.0000  0.0000  0.0000
  366TMC3  CA37 5375   3.802  -0.462   3.937  0.0000  0.0000  0.0000
  366TMC3  CA38 5376   3.769  -0.413   4.060  0.0000  0.0000  0.0000
  366TMC3  CA39 5377   3.742  -0.275   4.076  0.0000  0.0000  0.0000
  366TMC3  CA40 5378   3.744  -0.197   3.965  0.0000  0.0000  0.0000
  366TMC3  CA41 5379   3.773  -0.249   3.838  0.0000  0.0000  0.0000
  366TMC3  CA42 5380   3.804  -0.383   3.823  0.0000  0.0000  0.0000
  366TMC3  CB43 5381   3.823  -0.609   3.929  0.0000  0.0000  0.0000
  366TMC3  CB44 5382   3.695  -0.226   4.208  0.0000  0.0000  0.0000
  366TMC3  CB45 5383   3.781  -0.158   3.721  0.0000  0.0000  0.0000
  366TMC3  HA46 5384   3.763  -0.477   4.147  0.0000  0.0000  0.0000
  366TMC3  HA47 5385   3.703  -0.097   3.977  0.0000  0.0000  0.0000
  366TMC3  HA48 5386   3.830  -0.421   3.725  0.0000  0.0000  0.0000
  366TMC3   O49 5387   3.851  -0.674   4.026  0.0000  0.0000  0.0000
  366TMC3   O50 5388   3.714  -0.298   4.309  0.0000  0.0000  0.0000
  366TMC3   O51 5389   3.759  -0.042   3.739  0.0000  0.0000  0.0000
  367TMC3  CA37 5390   1.317   0.882   5.478  0.0000  0.0000  0.0000
  367TMC3  CA38 5391   1.205   0.954   5.438  0.0000  0.0000  0.0000
  367TMC3  CA39 5392   1.082   0.949   5.506  0.0000  0.0000  0.0000
  367TMC3  CA40 5393   1.089   0.889   5.635  0.0000  0.0000  0.0000
  367TMC3  CA41 5394   1.199   0.819   5.677  0.0000  0.0000  0.0000
  367TMC3  CA42 5395   1.316   0.809   5.599  0.0000  0.0000  0.0000
  367TMC3  CB43 5396   1.444   0.907   5.402  0.0000  0.0000  0.0000
  367TMC3  CB44 5397   0.972   1.037   5.458  0.0000  0.0000  0.0000
  367TMC3  CB45 5398   1.187   0.774   5.822  0.0000  0.0000  0.0000
  367TMC3  HA46 5399   1.204   1.011   5.345  0.0000  0.0000  0.0000
  367TMC3  HA47 5400   1.002   0.900   5.699  0.0000  0.0000  0.0000
  367TMC3  HA48 5401   1.400   0.763   5.649  0.0000  0.0000  0.0000
  367TMC3   O49 5402   1.449   0.947   5.288  0.0000  0.0000  0.0000
  367TMC3   O50 5403   0.998   1.141   5.395  0.0000  0.0000  0.0000
  367TMC3   O51 5404   1.114   0.682   5.855  0.0000  0.0000  0.0000
  368TMC3  CA37 5405   3.446  -0.767   3.820  0.0000  0.0000  0.0000
  368TMC3  CA38 5406   3.475  -0.717   3.688  0.0000  0.0000  0.0000
  368TMC3  CA39 5407   3.490  -0.577   3.676  0.0000  0.0000  0.0000
  368TMC3  CA40 5408   3.461  -0.486   3.778  0.0000  0.0000  0.0000
  368TMC3  CA41 5409   3.435  -0.536   3.907  0.0000  0.0000  0.0000
  368TMC3  CA42 5410   3.434  -0.676   3.930  0.0000  0.0000  0.0000
  368TMC3  CB43 5411   3.424  -0.912   3.856  0.0000  0.0000  0.0000
  368TMC3  CB44 5412   3.530  -0.532   3.537  0.0000  0.0000  0.0000
  368TMC3  CB45 5413   3.419  -0.445   4.021  0.0000  0.0000  0.0000
  368TMC3  HA46 5414   3.508  -0.783   3.609  0.0000  0.0000  0.0000
  368TMC3  HA47 5415   3.454  -0.381   3.753  0.0000  0.0000  0.0000
  368TMC3  HA48 5416   3.413  -0.720   4.028  0.0000  0.0000  0.0000
  368TMC3   O49 5417   3.436  -0.956   3.972  0.0000  0.0000  0.0000
  368TMC3   O50 5418   3.611  -0.441   3.518  0.0000  0.0000  0.0000
  368TMC3   O51 5419   3.412  -0.323   4.002  0.0000  0.0000  0.0000
  369TMC3  CA37 5420   2.044  -0.006   5.495  0.0000  0.0000  0.0000
  369TMC3  CA38 5421   2.034  -0.145   5.471  0.0000  0.0000  0.0000
  369TMC3  CA39 5422   1.926  -0.221   5.519  0.0000  0.0000  0.0000
  369TMC3  CA40 5423   1.841  -0.164   5.612  0.0000  0.0000  0.0000
  369TMC3  CA41 5424   1.847  -0.029   5.641  0.0000  0.0000  0.0000
  369TMC3  CA42 5425   1.943   0.053   5.578  0.0000  0.0000  0.0000
  369TMC3  CB43 5426   2.152   0.073   5.427  0.0000  0.0000  0.0000
  369TMC3  CB44 5427   1.916  -0.366   5.475  0.0000  0.0000  0.0000
  369TMC3  CB45 5428   1.754   0.024   5.744  0.0000  0.0000  0.0000
  369TMC3  HA46 5429   2.102  -0.190   5.399  0.0000  0.0000  0.0000
  369TMC3  HA47 5430   1.768  -0.223   5.667  0.0000  0.0000  0.0000
  369TMC3  HA48 5431   1.963   0.159   5.591  0.0000  0.0000  0.0000
  369TMC3   O49 5432   2.123   0.184   5.382  0.0000  0.0000  0.0000
  369TMC3   O50 5433   2.016  -0.433   5.455  0.0000  0.0000  0.0000
  369TMC3   O51 5434   1.693  -0.053   5.820  0.0000  0.0000  0.0000
  370TMC3  CA37 5435   3.602  -2.296   5.416  0.0000  0.0000  0.0000
  370TMC3  CA38 5436   3.737  -2.281   5.379  0.0000  0.0000  0.0000
  370TMC3  CA39 5437   3.824  -2.213   5.468  0.0000  0.0000  0.0000
  370TMC3  CA40 5438   3.782  -2.146   5.581  0.0000  0.0000  0.0000
  370TMC3  CA41 5439   3.641  -2.153   5.614  0.0000  0.0000  0.0000
  370TMC3  CA42 5440   3.556  -2.223   5.522  0.0000  0.0000  0.0000
  370TMC3  CB43 5441   3.504  -2.358   5.325  0.0000  0.0000  0.0000
  370TMC3  CB44 5442   3.969  -2.203   5.429  0.0000  0.0000  0.0000
  370TMC3  CB45 5443   3.600  -2.061   5.727  0.0000  0.0000  0.0000
  370TMC3  HA46 5444   3.771  -2.310   5.280  0.0000  0.0000  0.0000
  370TMC3  HA47 5445   3.854  -2.095   5.644  0.0000  0.0000  0.0000
  370TMC3  HA48 5446   3.449  -2.218   5.539  0.0000  0.0000  0.0000
  370TMC3   O49 5447   3.395  -2.316   5.324  0.0000  0.0000  0.0000
  370TMC3   O50 5448   4.040  -2.103   5.450  0.0000  0.0000  0.0000
  370TMC3   O51 5449   3.689  -2.014   5.799  0.0000  0.0000  0.0000
  371TMC3  CA37 5450   3.198  -0.081   3.278  0.0000  0.0000  0.0000
  371TMC3  CA38 5451   3.296  -0.173   3.227  0.0000  0.0000  0.0000
  371TMC3  CA39 5452   3.429  -0.134   3.214  0.0000  0.0000  0.0000
  371TMC3  CA40 5453   3.465  -0.004   3.248  0.0000  0.0000  0.0000
  371TMC3  CA41 5454   3.367   0.091   3.281  0.0000  0.0000  0.0000
  371TMC3  CA42 5455   3.235   0.050   3.306  0.0000  0.0000  0.0000
  371TMC3  CB43 5456   3.054  -0.119   3.300  0.0000  0.0000  0.0000
  371TMC3  CB44 5457   3.526  -0.231   3.165  0.0000  0.0000  0.0000
  371TMC3  CB45 5458   3.404   0.232   3.304  0.0000  0.0000  0.0000
  371TMC3  HA46 5459   3.265  -0.273   3.196  0.0000  0.0000  0.0000
  371TMC3  HA47 5460   3.568   0.029   3.233  0.0000  0.0000  0.0000
  371TMC3  HA48 5461   3.166   0.122   3.350  0.0000  0.0000  0.0000
  371TMC3   O49 5462   3.008  -0.223   3.262  0.0000  0.0000  0.0000
  371TMC3   O50 5463   3.504  -0.322   3.084  0.0000  0.0000  0.0000
  371TMC3   O51 5464   3.355   0.299   3.396  0.0000  0.0000  0.0000
  372TMC1    C1 5465   3.203   0.522   4.420  0.0000  0.0000  0.0000
  372TMC1    C2 5466   3.155   0.055   4.255  0.0000  0.0000  0.0000
  372TMC1   CA3 5467   3.140   0.388   4.437  0.0000  0.0000  0.0000
  372TMC1   CA4 5468   3.189   0.281   4.354  0.0000  0.0000  0.0000
  372TMC1   CA5 5469   3.134   0.156   4.366  0.0000  0.0000  0.0000
  372TMC1   CA6 5470   3.047   0.119   4.468  0.0000  0.0000  0.0000
  372TMC1   CA7 5471   3.010   0.223   4.557  0.0000  0.0000  0.0000
  372TMC1   CA8 5472   3.046   0.353   4.535  0.0000  0.0000  0.0000
  372TMC1   CB9 5473   2.908   0.183   4.661  0.0000  0.0000  0.0000
  372TMC1  HA10 5474   2.999   0.429   4.597  0.0000  0.0000  0.0000
  372TMC1  HA11 5475   3.261   0.313   4.279  0.0000  0.0000  0.0000
  372TMC1  HA12 5476   3.013   0.017   4.485  0.0000  0.0000  0.0000
  372TMC1  HO13 5477   3.163   0.544   4.587  0.0000  0.0000  0.0000
  372TMC1  HO14 5478   3.317   0.133   4.212  0.0000  0.0000  0.0000
  372TMC1   O15 5479   3.254   0.555   4.315  0.0000  0.0000  0.0000
  372TMC1   O16 5480   3.083  -0.043   4.243  0.0000  0.0000  0.0000
  372TMC1   O17 5481   2.812   0.261   4.692  0.0000  0.0000  0.0000
  372TMC1  OH18 5482   3.191   0.610   4.521  0.0000  0.0000  0.0000
  372TMC1  OH19 5483   3.250   0.081   4.165  0.0000  0.0000  0.0000
  373TMC3  CA37 5484   0.910  -0.105   5.733  0.0000  0.0000  0.0000
  373TMC3  CA38 5485   0.925  -0.221   5.662  0.0000  0.0000  0.0000
  373TMC3  CA39 5486   1.008  -0.327   5.708  0.0000  0.0000  0.0000
  373TMC3  CA40 5487   1.060  -0.307   5.839  0.0000  0.0000  0.0000
  373TMC3  CA41 5488   1.047  -0.190   5.922  0.0000  0.0000  0.0000
  373TMC3  CA42 5489   0.961  -0.096   5.868  0.0000  0.0000  0.0000
  373TMC3  CB43 5490   0.822   0.001   5.680  0.0000  0.0000  0.0000
  373TMC3  CB44 5491   1.024  -0.453   5.622  0.0000  0.0000  0.0000
  373TMC3  CB45 5492   1.118  -0.180   6.057  0.0000  0.0000  0.0000
  373TMC3  HA46 5493   0.875  -0.235   5.567  0.0000  0.0000  0.0000
  373TMC3  HA47 5494   1.123  -0.390   5.872  0.0000  0.0000  0.0000
  373TMC3  HA48 5495   0.929  -0.013   5.930  0.0000  0.0000  0.0000
  373TMC3   O49 5496   0.771   0.081   5.755  0.0000  0.0000  0.0000
  373TMC3   O50 5497   0.958  -0.480   5.524  0.0000  0.0000  0.0000
  373TMC3   O51 5498   1.060  -0.119   6.145  0.0000  0.0000  0.0000
  374TMC3  CA37 5499   1.237   1.444   5.254  0.0000  0.0000  0.0000
  374TMC3  CA38 5500   1.347   1.414   5.173  0.0000  0.0000  0.0000
  374TMC3  CA39 5501   1.452   1.332   5.217  0.0000  0.0000  0.0000
  374TMC3  CA40 5502   1.455   1.289   5.352  0.0000  0.0000  0.0000
  374TMC3  CA41 5503   1.344   1.313   5.430  0.0000  0.0000  0.0000
  374TMC3  CA42 5504   1.232   1.385   5.376  0.0000  0.0000  0.0000
  374TMC3  CB43 5505   1.125   1.528   5.201  0.0000  0.0000  0.0000
  374TMC3  CB44 5506   1.558   1.301   5.120  0.0000  0.0000  0.0000
  374TMC3  CB45 5507   1.334   1.285   5.575  0.0000  0.0000  0.0000
  374TMC3  HA46 5508   1.351   1.450   5.070  0.0000  0.0000  0.0000
  374TMC3  HA47 5509   1.544   1.234   5.381  0.0000  0.0000  0.0000
  374TMC3  HA48 5510   1.147   1.411   5.439  0.0000  0.0000  0.0000
  374TMC3   O49 5511   1.164   1.619   5.127  0.0000  0.0000  0.0000
  374TMC3   O50 5512   1.589   1.378   5.030  0.0000  0.0000  0.0000
  374TMC3   O51 5513   1.236   1.315   5.640  0.0000  0.0000  0.0000
  375TMC2   C20 5514   1.882  -0.804   3.966  0.0000  0.0000  0.0000
  375TMC2  CA21 5515   1.817  -0.684   4.003  0.0000  0.0000  0.0000
  375TMC2  CA22 5516   1.868  -0.593   4.098  0.0000  0.0000  0.0000
  375TMC2  CA23 5517   1.794  -0.487   4.136  0.0000  0.0000  0.0000
  375TMC2  CA24 5518   1.674  -0.450   4.066  0.0000  0.0000  0.0000
  375TMC2  CA25 5519   1.631  -0.531   3.956  0.0000  0.0000  0.0000
  375TMC2  CA26 5520   1.703  -0.651   3.930  0.0000  0.0000  0.0000
  375TMC2  CB27 5521   1.847  -0.398   4.240  0.0000  0.0000  0.0000
  375TMC2  CB28 5522   1.501  -0.495   3.897  0.0000  0.0000  0.0000
  375TMC2  HA29 5523   1.957  -0.623   4.153  0.0000  0.0000  0.0000
  375TMC2  HA30 5524   1.628  -0.353   4.086  0.0000  0.0000  0.0000
  375TMC2  HA31 5525   1.676  -0.726   3.857  0.0000  0.0000  0.0000
  375TMC2  HO32 5526   1.915  -0.824   4.149  0.0000  0.0000  0.0000
  375TMC2   O33 5527   1.878  -0.863   3.857  0.0000  0.0000  0.0000
  375TMC2   O34 5528   1.955  -0.420   4.292  0.0000  0.0000  0.0000
  375TMC2   O35 5529   1.429  -0.417   3.965  0.0000  0.0000  0.0000
  375TMC2  OH36 5530   1.941  -0.871   4.068  0.0000  0.0000  0.0000
  376TMC3  CA37 5531   3.353   1.101   3.673  0.0000  0.0000  0.0000
  376TMC3  CA38 5532   3.244   1.157   3.606  0.0000  0.0000  0.0000
  376TMC3  CA39 5533   3.204   1.104   3.482  0.0000  0.0000  0.0000
  376TMC3  CA40 5534   3.274   0.994   3.427  0.0000  0.0000  0.0000
  376TMC3  CA41 5535   3.386   0.941   3.496  0.0000  0.0000  0.0000
  376TMC3  CA42 5536   3.427   1.003   3.612  0.0000  0.0000  0.0000
  376TMC3  CB43 5537   3.396   1.141   3.806  0.0000  0.0000  0.0000
  376TMC3  CB44 5538   3.094   1.176   3.407  0.0000  0.0000  0.0000
  376TMC3  CB45 5539   3.478   0.829   3.444  0.0000  0.0000  0.0000
  376TMC3  HA46 5540   3.189   1.236   3.656  0.0000  0.0000  0.0000
  376TMC3  HA47 5541   3.231   0.941   3.343  0.0000  0.0000  0.0000
  376TMC3  HA48 5542   3.517   0.966   3.662  0.0000  0.0000  0.0000
  376TMC3   O49 5543   3.506   1.102   3.847  0.0000  0.0000  0.0000
  376TMC3   O50 5544   3.010   1.248   3.458  0.0000  0.0000  0.0000
  376TMC3   O51 5545   3.585   0.799   3.504  0.0000  0.0000  0.0000
  377TMC2   C20 5546   1.944  -2.347   4.250  0.0000  0.0000  0.0000
  377TMC2  CA21 5547   1.886  -2.243   4.340  0.0000  0.0000  0.0000
  377TMC2  CA22 5548   1.960  -2.204   4.451  0.0000  0.0000  0.0000
  377TMC2  CA23 5549   1.904  -2.121   4.539  0.0000  0.0000  0.0000
  377TMC2  CA24 5550   1.781  -2.064   4.513  0.0000  0.0000  0.0000
  377TMC2  CA25 5551   1.696  -2.106   4.408  0.0000  0.0000  0.0000
  377TMC2  CA26 5552   1.754  -2.199   4.319  0.0000  0.0000  0.0000
  377TMC2  CB27 5553   1.982  -2.072   4.658  0.0000  0.0000  0.0000
  377TMC2  CB28 5554   1.559  -2.041   4.391  0.0000  0.0000  0.0000
  377TMC2  HA29 5555   2.062  -2.240   4.465  0.0000  0.0000  0.0000
  377TMC2  HA30 5556   1.738  -1.990   4.580  0.0000  0.0000  0.0000
  377TMC2  HA31 5557   1.700  -2.235   4.232  0.0000  0.0000  0.0000
  377TMC2  HO32 5558   2.088  -2.351   4.362  0.0000  0.0000  0.0000
  377TMC2   O33 5559   1.882  -2.398   4.157  0.0000  0.0000  0.0000
  377TMC2   O34 5560   1.924  -2.004   4.742  0.0000  0.0000  0.0000
  377TMC2   O35 5561   1.523  -1.974   4.484  0.0000  0.0000  0.0000
  377TMC2  OH36 5562   2.070  -2.386   4.273  0.0000  0.0000  0.0000
  378TMC1    C1 5563   3.391  -1.607   4.065  0.0000  0.0000  0.0000
  378TMC1    C2 5564   3.506  -1.406   3.625  0.0000  0.0000  0.0000
  378TMC1   CA3 5565   3.368  -1.590   3.920  0.0000  0.0000  0.0000
  378TMC1   CA4 5566   3.449  -1.514   3.846  0.0000  0.0000  0.0000
  378TMC1   CA5 5567   3.421  -1.498   3.713  0.0000  0.0000  0.0000
  378TMC1   CA6 5568   3.321  -1.572   3.650  0.0000  0.0000  0.0000
  378TMC1   CA7 5569   3.243  -1.653   3.721  0.0000  0.0000  0.0000
  378TMC1   CA8 5570   3.262  -1.660   3.855  0.0000  0.0000  0.0000
  378TMC1   CB9 5571   3.126  -1.722   3.660  0.0000  0.0000  0.0000
  378TMC1  HA10 5572   3.195  -1.713   3.921  0.0000  0.0000  0.0000
  378TMC1  HA11 5573   3.532  -1.460   3.892  0.0000  0.0000  0.0000
  378TMC1  HA12 5574   3.313  -1.564   3.542  0.0000  0.0000  0.0000
  378TMC1  HO13 5575   3.509  -1.449   4.070  0.0000  0.0000  0.0000
  378TMC1  HO14 5576   3.517  -1.289   3.779  0.0000  0.0000  0.0000
  378TMC1   O15 5577   3.332  -1.688   4.130  0.0000  0.0000  0.0000
  378TMC1   O16 5578   3.509  -1.408   3.504  0.0000  0.0000  0.0000
  378TMC1   O17 5579   3.074  -1.679   3.559  0.0000  0.0000  0.0000
  378TMC1  OH18 5580   3.475  -1.519   4.129  0.0000  0.0000  0.0000
  378TMC1  OH19 5581   3.560  -1.303   3.693  0.0000  0.0000  0.0000
  379TMC2   C20 5582   1.837   0.682   4.476  0.0000  0.0000  0.0000
  379TMC2  CA21 5583   1.717   0.588   4.466  0.0000  0.0000  0.0000
  379TMC2  CA22 5584   1.737   0.451   4.458  0.0000  0.0000  0.0000
  379TMC2  CA23 5585   1.622   0.377   4.438  0.0000  0.0000  0.0000
  379TMC2  CA24 5586   1.491   0.435   4.432  0.0000  0.0000  0.0000
  379TMC2  CA25 5587   1.476   0.573   4.442  0.0000  0.0000  0.0000
  379TMC2  CA26 5588   1.592   0.649   4.449  0.0000  0.0000  0.0000
  379TMC2  CB27 5589   1.633   0.228   4.426  0.0000  0.0000  0.0000
  379TMC2  CB28 5590   1.344   0.632   4.407  0.0000  0.0000  0.0000
  379TMC2  HA29 5591   1.837   0.410   4.454  0.0000  0.0000  0.0000
  379TMC2  HA30 5592   1.409   0.371   4.400  0.0000  0.0000  0.0000
  379TMC2  HA31 5593   1.590   0.758   4.444  0.0000  0.0000  0.0000
  379TMC2  HO32 5594   1.729   0.847   4.504  0.0000  0.0000  0.0000
  379TMC2   O33 5595   1.949   0.632   4.466  0.0000  0.0000  0.0000
  379TMC2   O34 5596   1.547   0.166   4.365  0.0000  0.0000  0.0000
  379TMC2   O35 5597   1.236   0.571   4.417  0.0000  0.0000  0.0000
  379TMC2  OH36 5598   1.822   0.819   4.499  0.0000  0.0000  0.0000
  380TMC2   C20 5599   0.829  -1.406   5.220  0.0000  0.0000  0.0000
  380TMC2  CA21 5600   0.878  -1.276   5.169  0.0000  0.0000  0.0000
  380TMC2  CA22 5601   0.896  -1.176   5.264  0.0000  0.0000  0.0000
  380TMC2  CA23 5602   0.937  -1.047   5.221  0.0000  0.0000  0.0000
  380TMC2  CA24 5603   0.947  -1.021   5.080  0.0000  0.0000  0.0000
  380TMC2  CA25 5604   0.932  -1.125   4.986  0.0000  0.0000  0.0000
  380TMC2  CA26 5605   0.898  -1.250   5.033  0.0000  0.0000  0.0000
  380TMC2  CB27 5606   0.958  -0.938   5.321  0.0000  0.0000  0.0000
  380TMC2  CB28 5607   0.948  -1.094   4.837  0.0000  0.0000  0.0000
  380TMC2  HA29 5608   0.883  -1.194   5.370  0.0000  0.0000  0.0000
  380TMC2  HA30 5609   0.958  -0.916   5.052  0.0000  0.0000  0.0000
  380TMC2  HA31 5610   0.891  -1.334   4.965  0.0000  0.0000  0.0000
  380TMC2  HO32 5611   0.731  -1.431   5.057  0.0000  0.0000  0.0000
  380TMC2   O33 5612   0.850  -1.434   5.333  0.0000  0.0000  0.0000
  380TMC2   O34 5613   0.912  -0.831   5.294  0.0000  0.0000  0.0000
  380TMC2   O35 5614   0.912  -1.173   4.744  0.0000  0.0000  0.0000
  380TMC2  OH36 5615   0.755  -1.484   5.135  0.0000  0.0000  0.0000
  381TMC3  CA37 5616   3.766  -0.463   2.761  0.0000  0.0000  0.0000
  381TMC3  CA38 5617   3.668  -0.561   2.762  0.0000  0.0000  0.0000
  381TMC3  CA39 5618   3.537  -0.528   2.797  0.0000  0.0000  0.0000
  381TMC3  CA40 5619   3.495  -0.395   2.807  0.0000  0.0000  0.0000
  381TMC3  CA41 5620   3.583  -0.295   2.793  0.0000  0.0000  0.0000
  381TMC3  CA42 5621   3.721  -0.327   2.782  0.0000  0.0000  0.0000
  381TMC3  CB43 5622   3.904  -0.491   2.738  0.0000  0.0000  0.0000
  381TMC3  CB44 5623   3.439  -0.629   2.818  0.0000  0.0000  0.0000
  381TMC3  CB45 5624   3.539  -0.153   2.802  0.0000  0.0000  0.0000
  381TMC3  HA46 5625   3.695  -0.665   2.747  0.0000  0.0000  0.0000
  381TMC3  HA47 5626   3.388  -0.386   2.827  0.0000  0.0000  0.0000
  381TMC3  HA48 5627   3.792  -0.245   2.779  0.0000  0.0000  0.0000
  381TMC3   O49 5628   3.986  -0.419   2.686  0.0000  0.0000  0.0000
  381TMC3   O50 5629   3.381  -0.676   2.720  0.0000  0.0000  0.0000
  381TMC3   O51 5630   3.602  -0.066   2.746  0.0000  0.0000  0.0000
  382TMC2   C20 5631   1.784   1.402   5.573  0.0000  0.0000  0.0000
  382TMC2  CA21 5632   1.813   1.453   5.430  0.0000  0.0000  0.0000
  382TMC2  CA22 5633   1.921   1.401   5.368  0.0000  0.0000  0.0000
  382TMC2  CA23 5634   1.945   1.432   5.230  0.0000  0.0000  0.0000
  382TMC2  CA24 5635   1.853   1.505   5.161  0.0000  0.0000  0.0000
  382TMC2  CA25 5636   1.736   1.558   5.230  0.0000  0.0000  0.0000
  382TMC2  CA26 5637   1.720   1.526   5.359  0.0000  0.0000  0.0000
  382TMC2  CB27 5638   2.067   1.381   5.157  0.0000  0.0000  0.0000
  382TMC2  CB28 5639   1.639   1.650   5.161  0.0000  0.0000  0.0000
  382TMC2  HA29 5640   1.982   1.326   5.416  0.0000  0.0000  0.0000
  382TMC2  HA30 5641   1.862   1.532   5.056  0.0000  0.0000  0.0000
  382TMC2  HA31 5642   1.630   1.564   5.407  0.0000  0.0000  0.0000
  382TMC2  HO32 5643   1.634   1.528   5.589  0.0000  0.0000  0.0000
  382TMC2   O33 5644   1.847   1.315   5.633  0.0000  0.0000  0.0000
  382TMC2   O34 5645   2.091   1.414   5.044  0.0000  0.0000  0.0000
  382TMC2   O35 5646   1.550   1.702   5.232  0.0000  0.0000  0.0000
  382TMC2  OH36 5647   1.674   1.454   5.638  0.0000  0.0000  0.0000
  383TMC3  CA37 5648   4.423  -0.411   4.162  0.0000  0.0000  0.0000
  383TMC3  CA38 5649   4.458  -0.314   4.063  0.0000  0.0000  0.0000
  383TMC3  CA39 5650   4.395  -0.186   4.082  0.0000  0.0000  0.0000
  383TMC3  CA40 5651   4.305  -0.161   4.188  0.0000  0.0000  0.0000
  383TMC3  CA41 5652   4.292  -0.251   4.288  0.0000  0.0000  0.0000
  383TMC3  CA42 5653   4.344  -0.381   4.274  0.0000  0.0000  0.0000
  383TMC3  CB43 5654   4.481  -0.547   4.144  0.0000  0.0000  0.0000
  383TMC3  CB44 5655   4.412  -0.073   3.988  0.0000  0.0000  0.0000
  383TMC3  CB45 5656   4.195  -0.221   4.393  0.0000  0.0000  0.0000
  383TMC3  HA46 5657   4.527  -0.330   3.981  0.0000  0.0000  0.0000
  383TMC3  HA47 5658   4.267  -0.061   4.206  0.0000  0.0000  0.0000
  383TMC3  HA48 5659   4.311  -0.457   4.344  0.0000  0.0000  0.0000
  383TMC3   O49 5660   4.573  -0.562   4.064  0.0000  0.0000  0.0000
  383TMC3   O50 5661   4.324   0.003   3.970  0.0000  0.0000  0.0000
  383TMC3   O51 5662   4.084  -0.267   4.396  0.0000  0.0000  0.0000
  384TMC3  CA37 5663   3.082   1.348   4.755  0.0000  0.0000  0.0000
  384TMC3  CA38 5664   2.944   1.342   4.769  0.0000  0.0000  0.0000
  384TMC3  CA39 5665   2.864   1.299   4.664  0.0000  0.0000  0.0000
  384TMC3  CA40 5666   2.927   1.269   4.542  0.0000  0.0000  0.0000
  384TMC3  CA41 5667   3.066   1.288   4.523  0.0000  0.0000  0.0000
  384TMC3  CA42 5668   3.143   1.326   4.630  0.0000  0.0000  0.0000
  384TMC3  CB43 5669   3.162   1.371   4.879  0.0000  0.0000  0.0000
  384TMC3  CB44 5670   2.718   1.296   4.682  0.0000  0.0000  0.0000
  384TMC3  CB45 5671   3.117   1.282   4.385  0.0000  0.0000  0.0000
  384TMC3  HA46 5672   2.906   1.357   4.869  0.0000  0.0000  0.0000
  384TMC3  HA47 5673   2.868   1.231   4.459  0.0000  0.0000  0.0000
  384TMC3  HA48 5674   3.250   1.346   4.629  0.0000  0.0000  0.0000
  384TMC3   O49 5675   3.127   1.318   4.981  0.0000  0.0000  0.0000
  384TMC3   O50 5676   2.668   1.258   4.789  0.0000  0.0000  0.0000
  384TMC3   O51 5677   3.053   1.225   4.293  0.0000  0.0000  0.0000
  385TMC3  CA37 5678   1.548   0.775   3.907  0.0000  0.0000  0.0000
  385TMC3  CA38 5679   1.520   0.909   3.934  0.0000  0.0000  0.0000
  385TMC3  CA39 5680   1.389   0.951   3.949  0.0000  0.0000  0.0000
  385TMC3  CA40 5681   1.283   0.865   3.942  0.0000  0.0000  0.0000
  385TMC3  CA41 5682   1.306   0.728   3.939  0.0000  0.0000  0.0000
  385TMC3  CA42 5683   1.443   0.685   3.921  0.0000  0.0000  0.0000
  385TMC3  CB43 5684   1.684   0.730   3.856  0.0000  0.0000  0.0000
  385TMC3  CB44 5685   1.357   1.093   3.975  0.0000  0.0000  0.0000
  385TMC3  CB45 5686   1.188   0.640   3.965  0.0000  0.0000  0.0000
  385TMC3  HA46 5687   1.595   0.988   3.929  0.0000  0.0000  0.0000
  385TMC3  HA47 5688   1.181   0.895   3.962  0.0000  0.0000  0.0000
  385TMC3  HA48 5689   1.460   0.578   3.906  0.0000  0.0000  0.0000
  385TMC3   O49 5690   1.704   0.611   3.850  0.0000  0.0000  0.0000
  385TMC3   O50 5691   1.404   1.187   3.905  0.0000  0.0000  0.0000
  385TMC3   O51 5692   1.074   0.682   3.970  0.0000  0.0000  0.0000
  386TMC3  CA37 5693   4.390  -0.733   3.402  0.0000  0.0000  0.0000
  386TMC3  CA38 5694   4.292  -0.630   3.385  0.0000  0.0000  0.0000
  386TMC3  CA39 5695   4.160  -0.650   3.424  0.0000  0.0000  0.0000
  386TMC3  CA40 5696   4.121  -0.773   3.468  0.0000  0.0000  0.0000
  386TMC3  CA41 5697   4.208  -0.880   3.488  0.0000  0.0000  0.0000
  386TMC3  CA42 5698   4.349  -0.849   3.471  0.0000  0.0000  0.0000
  386TMC3  CB43 5699   4.537  -0.698   3.373  0.0000  0.0000  0.0000
  386TMC3  CB44 5700   4.050  -0.548   3.411  0.0000  0.0000  0.0000
  386TMC3  CB45 5701   4.169  -1.012   3.527  0.0000  0.0000  0.0000
  386TMC3  HA46 5702   4.327  -0.536   3.345  0.0000  0.0000  0.0000
  386TMC3  HA47 5703   4.018  -0.781   3.500  0.0000  0.0000  0.0000
  386TMC3  HA48 5704   4.426  -0.923   3.488  0.0000  0.0000  0.0000
  386TMC3   O49 5705   4.581  -0.590   3.404  0.0000  0.0000  0.0000
  386TMC3   O50 5706   3.962  -0.534   3.495  0.0000  0.0000  0.0000
  386TMC3   O51 5707   4.049  -1.040   3.524  0.0000  0.0000  0.0000
  387TMC3  CA37 5708   2.903  -1.580   3.262  0.0000  0.0000  0.0000
  387TMC3  CA38 5709   2.991  -1.491   3.323  0.0000  0.0000  0.0000
  387TMC3  CA39 5710   2.954  -1.357   3.338  0.0000  0.0000  0.0000
  387TMC3  CA40 5711   2.829  -1.313   3.291  0.0000  0.0000  0.0000
  387TMC3  CA41 5712   2.733  -1.405   3.246  0.0000  0.0000  0.0000
  387TMC3  CA42 5713   2.775  -1.536   3.226  0.0000  0.0000  0.0000
  387TMC3  CB43 5714   2.931  -1.728   3.243  0.0000  0.0000  0.0000
  387TMC3  CB44 5715   3.033  -1.261   3.427  0.0000  0.0000  0.0000
  387TMC3  CB45 5716   2.594  -1.364   3.204  0.0000  0.0000  0.0000
  387TMC3  HA46 5717   3.086  -1.529   3.361  0.0000  0.0000  0.0000
  387TMC3  HA47 5718   2.805  -1.207   3.289  0.0000  0.0000  0.0000
  387TMC3  HA48 5719   2.707  -1.611   3.186  0.0000  0.0000  0.0000
  387TMC3   O49 5720   2.838  -1.805   3.234  0.0000  0.0000  0.0000
  387TMC3   O50 5721   3.057  -1.146   3.388  0.0000  0.0000  0.0000
  387TMC3   O51 5722   2.514  -1.456   3.190  0.0000  0.0000  0.0000
  388TMC1    C1 5723   3.269  -1.180   3.028  0.0000  0.0000  0.0000
  388TMC1    C2 5724   3.743  -1.040   2.913  0.0000  0.0000  0.0000
  388TMC1   CA3 5725   3.397  -1.109   3.069  0.0000  0.0000  0.0000
  388TMC1   CA4 5726   3.510  -1.110   2.977  0.0000  0.0000  0.0000
  388TMC1   CA5 5727   3.634  -1.056   3.010  0.0000  0.0000  0.0000
  388TMC1   CA6 5728   3.655  -1.008   3.138  0.0000  0.0000  0.0000
  388TMC1   CA7 5729   3.551  -1.012   3.238  0.0000  0.0000  0.0000
  388TMC1   CA8 5730   3.419  -1.055   3.199  0.0000  0.0000  0.0000
  388TMC1   CB9 5731   3.570  -0.976   3.379  0.0000  0.0000  0.0000
  388TMC1  HA10 5732   3.339  -1.061   3.272  0.0000  0.0000  0.0000
  388TMC1  HA11 5733   3.502  -1.158   2.880  0.0000  0.0000  0.0000
  388TMC1  HA12 5734   3.760  -0.985   3.156  0.0000  0.0000  0.0000
  388TMC1  HO13 5735   3.174  -1.134   3.200  0.0000  0.0000  0.0000
  388TMC1  HO14 5736   3.668  -1.186   2.830  0.0000  0.0000  0.0000
  388TMC1   O15 5737   3.259  -1.232   2.919  0.0000  0.0000  0.0000
  388TMC1   O16 5738   3.828  -0.953   2.931  0.0000  0.0000  0.0000
  388TMC1   O17 5739   3.474  -0.954   3.443  0.0000  0.0000  0.0000
  388TMC1  OH18 5740   3.158  -1.159   3.108  0.0000  0.0000  0.0000
  388TMC1  OH19 5741   3.747  -1.132   2.814  0.0000  0.0000  0.0000
  389TMC3  CA37 5742   2.307   1.224   3.982  0.0000  0.0000  0.0000
  389TMC3  CA38 5743   2.434   1.179   3.950  0.0000  0.0000  0.0000
  389TMC3  CA39 5744   2.538   1.266   3.969  0.0000  0.0000  0.0000
  389TMC3  CA40 5745   2.523   1.393   4.025  0.0000  0.0000  0.0000
  389TMC3  CA41 5746   2.393   1.433   4.062  0.0000  0.0000  0.0000
  389TMC3  CA42 5747   2.290   1.349   4.044  0.0000  0.0000  0.0000
  389TMC3  CB43 5748   2.191   1.138   3.967  0.0000  0.0000  0.0000
  389TMC3  CB44 5749   2.677   1.202   3.947  0.0000  0.0000  0.0000
  389TMC3  CB45 5750   2.364   1.571   4.106  0.0000  0.0000  0.0000
  389TMC3  HA46 5751   2.445   1.076   3.917  0.0000  0.0000  0.0000
  389TMC3  HA47 5752   2.606   1.463   4.024  0.0000  0.0000  0.0000
  389TMC3  HA48 5753   2.193   1.387   4.074  0.0000  0.0000  0.0000
  389TMC3   O49 5754   2.098   1.143   4.036  0.0000  0.0000  0.0000
  389TMC3   O50 5755   2.750   1.260   3.868  0.0000  0.0000  0.0000
  389TMC3   O51 5756   2.254   1.614   4.076  0.0000  0.0000  0.0000
  390TMC3  CA37 5757   3.319   1.435   5.461  0.0000  0.0000  0.0000
  390TMC3  CA38 5758   3.245   1.493   5.357  0.0000  0.0000  0.0000
  390TMC3  CA39 5759   3.285   1.618   5.300  0.0000  0.0000  0.0000
  390TMC3  CA40 5760   3.398   1.688   5.352  0.0000  0.0000  0.0000
  390TMC3  CA41 5761   3.476   1.627   5.450  0.0000  0.0000  0.0000
  390TMC3  CA42 5762   3.436   1.501   5.503  0.0000  0.0000  0.0000
  390TMC3  CB43 5763   3.265   1.313   5.525  0.0000  0.0000  0.0000
  390TMC3  CB44 5764   3.206   1.691   5.201  0.0000  0.0000  0.0000
  390TMC3  CB45 5765   3.597   1.698   5.495  0.0000  0.0000  0.0000
  390TMC3  HA46 5766   3.156   1.437   5.331  0.0000  0.0000  0.0000
  390TMC3  HA47 5767   3.425   1.787   5.319  0.0000  0.0000  0.0000
  390TMC3  HA48 5768   3.487   1.463   5.590  0.0000  0.0000  0.0000
  390TMC3   O49 5769   3.151   1.278   5.507  0.0000  0.0000  0.0000
  390TMC3   O50 5770   3.220   1.809   5.179  0.0000  0.0000  0.0000
  390TMC3   O51 5771   3.641   1.796   5.432  0.0000  0.0000  0.0000
  391TMC1    C1 5772   3.605   0.854   4.683  0.0000  0.0000  0.0000
  391TMC1    C2 5773   3.865   0.725   4.270  0.0000  0.0000  0.0000
  391TMC1   CA3 5774   3.621   0.767   4.563  0.0000  0.0000  0.0000
  391TMC1   CA4 5775   3.728   0.792   4.473  0.0000  0.0000  0.0000
  391TMC1   CA5 5776   3.763   0.699   4.378  0.0000  0.0000  0.0000
  391TMC1   CA6 5777   3.697   0.577   4.375  0.0000  0.0000  0.0000
  391TMC1   CA7 5778   3.595   0.549   4.468  0.0000  0.0000  0.0000
  391TMC1   CA8 5779   3.549   0.646   4.553  0.0000  0.0000  0.0000
  391TMC1   CB9 5780   3.538   0.411   4.475  0.0000  0.0000  0.0000
  391TMC1  HA10 5781   3.477   0.616   4.628  0.0000  0.0000  0.0000
  391TMC1  HA11 5782   3.789   0.881   4.488  0.0000  0.0000  0.0000
  391TMC1  HA12 5783   3.721   0.499   4.304  0.0000  0.0000  0.0000
  391TMC1  HO13 5784   3.436   0.783   4.696  0.0000  0.0000  0.0000
  391TMC1  HO14 5785   3.820   0.908   4.274  0.0000  0.0000  0.0000
  391TMC1   O15 5786   3.694   0.929   4.715  0.0000  0.0000  0.0000
  391TMC1   O16 5787   3.915   0.628   4.215  0.0000  0.0000  0.0000
  391TMC1   O17 5788   3.425   0.400   4.532  0.0000  0.0000  0.0000
  391TMC1  OH18 5789   3.493   0.840   4.749  0.0000  0.0000  0.0000
  391TMC1  OH19 5790   3.889   0.854   4.231  0.0000  0.0000  0.0000
  392TMC2   C20 5791   0.680   2.055   4.693  0.0000  0.0000  0.0000
  392TMC2  CA21 5792   0.775   1.947   4.720  0.0000  0.0000  0.0000
  392TMC2  CA22 5793   0.734   1.810   4.743  0.0000  0.0000  0.0000
  392TMC2  CA23 5794   0.819   1.705   4.781  0.0000  0.0000  0.0000
  392TMC2  CA24 5795   0.950   1.734   4.793  0.0000  0.0000  0.0000
  392TMC2  CA25 5796   0.994   1.865   4.764  0.0000  0.0000  0.0000
  392TMC2  CA26 5797   0.909   1.971   4.734  0.0000  0.0000  0.0000
  392TMC2  CB27 5798   0.762   1.564   4.812  0.0000  0.0000  0.0000
  392TMC2  CB28 5799   1.139   1.903   4.778  0.0000  0.0000  0.0000
  392TMC2  HA29 5800   0.629   1.784   4.734  0.0000  0.0000  0.0000
  392TMC2  HA30 5801   1.024   1.658   4.817  0.0000  0.0000  0.0000
  392TMC2  HA31 5802   0.948   2.072   4.726  0.0000  0.0000  0.0000
  392TMC2  HO32 5803   0.557   1.962   4.794  0.0000  0.0000  0.0000
  392TMC2   O33 5804   0.712   2.154   4.623  0.0000  0.0000  0.0000
  392TMC2   O34 5805   0.839   1.471   4.806  0.0000  0.0000  0.0000
  392TMC2   O35 5806   1.174   2.019   4.767  0.0000  0.0000  0.0000
  392TMC2  OH36 5807   0.552   2.037   4.732  0.0000  0.0000  0.0000
  393TMC2   C20 5808   1.756   2.511   5.718  0.0000  0.0000  0.0000
  393TMC2  CA21 5809   1.727   2.364   5.743  0.0000  0.0000  0.0000
  393TMC2  CA22 5810   1.822   2.267   5.723  0.0000  0.0000  0.0000
  393TMC2  CA23 5811   1.785   2.131   5.744  0.0000  0.0000  0.0000
  393TMC2  CA24 5812   1.657   2.091   5.781  0.0000  0.0000  0.0000
  393TMC2  CA25 5813   1.563   2.193   5.805  0.0000  0.0000  0.0000
  393TMC2  CA26 5814   1.601   2.327   5.790  0.0000  0.0000  0.0000
  393TMC2  CB27 5815   1.895   2.023   5.725  0.0000  0.0000  0.0000
  393TMC2  CB28 5816   1.420   2.164   5.826  0.0000  0.0000  0.0000
  393TMC2  HA29 5817   1.920   2.293   5.684  0.0000  0.0000  0.0000
  393TMC2  HA30 5818   1.629   1.986   5.778  0.0000  0.0000  0.0000
  393TMC2  HA31 5819   1.529   2.408   5.795  0.0000  0.0000  0.0000
  393TMC2  HO32 5820   1.640   2.547   5.855  0.0000  0.0000  0.0000
  393TMC2   O33 5821   1.835   2.552   5.633  0.0000  0.0000  0.0000
  393TMC2   O34 5822   1.866   1.909   5.755  0.0000  0.0000  0.0000
  393TMC2   O35 5823   1.340   2.255   5.828  0.0000  0.0000  0.0000
  393TMC2  OH36 5824   1.678   2.598   5.782  0.0000  0.0000  0.0000
  394TMC2   C20 5825   3.262   0.204   5.513  0.0000  0.0000  0.0000
  394TMC2  CA21 5826   3.333   0.161   5.385  0.0000  0.0000  0.0000
  394TMC2  CA22 5827   3.451   0.228   5.341  0.0000  0.0000  0.0000
  394TMC2  CA23 5828   3.523   0.188   5.230  0.0000  0.0000  0.0000
  394TMC2  CA24 5829   3.450   0.105   5.140  0.0000  0.0000  0.0000
  394TMC2  CA25 5830   3.339   0.037   5.176  0.0000  0.0000  0.0000
  394TMC2  CA26 5831   3.283   0.061   5.300  0.0000  0.0000  0.0000
  394TMC2  CB27 5832   3.655   0.250   5.187  0.0000  0.0000  0.0000
  394TMC2  CB28 5833   3.302  -0.073   5.083  0.0000  0.0000  0.0000
  394TMC2  HA29 5834   3.500   0.295   5.411  0.0000  0.0000  0.0000
  394TMC2  HA30 5835   3.503   0.064   5.054  0.0000  0.0000  0.0000
  394TMC2  HA31 5836   3.190   0.014   5.331  0.0000  0.0000  0.0000
  394TMC2  HO32 5837   3.104   0.153   5.438  0.0000  0.0000  0.0000
  394TMC2   O33 5838   3.325   0.254   5.602  0.0000  0.0000  0.0000
  394TMC2   O34 5839   3.702   0.216   5.080  0.0000  0.0000  0.0000
  394TMC2   O35 5840   3.319  -0.062   4.965  0.0000  0.0000  0.0000
  394TMC2  OH36 5841   3.136   0.182   5.525  0.0000  0.0000  0.0000
  395TMC3  CA37 5842   1.883  -1.468   3.578  0.0000  0.0000  0.0000
  395TMC3  CA38 5843   1.881  -1.584   3.661  0.0000  0.0000  0.0000
  395TMC3  CA39 5844   1.976  -1.593   3.768  0.0000  0.0000  0.0000
  395TMC3  CA40 5845   2.072  -1.494   3.794  0.0000  0.0000  0.0000
  395TMC3  CA41 5846   2.074  -1.380   3.708  0.0000  0.0000  0.0000
  395TMC3  CA42 5847   1.972  -1.368   3.609  0.0000  0.0000  0.0000
  395TMC3  CB43 5848   1.785  -1.461   3.460  0.0000  0.0000  0.0000
  395TMC3  CB44 5849   1.979  -1.718   3.854  0.0000  0.0000  0.0000
  395TMC3  CB45 5850   2.179  -1.267   3.734  0.0000  0.0000  0.0000
  395TMC3  HA46 5851   1.810  -1.663   3.641  0.0000  0.0000  0.0000
  395TMC3  HA47 5852   2.148  -1.498   3.872  0.0000  0.0000  0.0000
  395TMC3  HA48 5853   1.967  -1.276   3.552  0.0000  0.0000  0.0000
  395TMC3   O49 5854   1.673  -1.503   3.463  0.0000  0.0000  0.0000
  395TMC3   O50 5855   1.898  -1.807   3.841  0.0000  0.0000  0.0000
  395TMC3   O51 5856   2.272  -1.281   3.811  0.0000  0.0000  0.0000
  396TMC3  CA37 5857   1.969   0.544   4.110  0.0000  0.0000  0.0000
  396TMC3  CA38 5858   1.874   0.644   4.124  0.0000  0.0000  0.0000
  396TMC3  CA39 5859   1.915   0.774   4.141  0.0000  0.0000  0.0000
  396TMC3  CA40 5860   2.051   0.799   4.143  0.0000  0.0000  0.0000
  396TMC3  CA41 5861   2.149   0.695   4.115  0.0000  0.0000  0.0000
  396TMC3  CA42 5862   2.104   0.569   4.090  0.0000  0.0000  0.0000
  396TMC3  CB43 5863   1.919   0.405   4.103  0.0000  0.0000  0.0000
  396TMC3  CB44 5864   1.808   0.884   4.155  0.0000  0.0000  0.0000
  396TMC3  CB45 5865   2.294   0.726   4.114  0.0000  0.0000  0.0000
  396TMC3  HA46 5866   1.769   0.629   4.146  0.0000  0.0000  0.0000
  396TMC3  HA47 5867   2.083   0.900   4.163  0.0000  0.0000  0.0000
  396TMC3  HA48 5868   2.167   0.483   4.068  0.0000  0.0000  0.0000
  396TMC3   O49 5869   1.804   0.377   4.131  0.0000  0.0000  0.0000
  396TMC3   O50 5870   1.707   0.848   4.204  0.0000  0.0000  0.0000
  396TMC3   O51 5871   2.377   0.659   4.053  0.0000  0.0000  0.0000
  397TMC3  CA37 5872   0.691  -1.996   4.714  0.0000  0.0000  0.0000
  397TMC3  CA38 5873   0.747  -1.907   4.804  0.0000  0.0000  0.0000
  397TMC3  CA39 5874   0.867  -1.836   4.770  0.0000  0.0000  0.0000
  397TMC3  CA40 5875   0.939  -1.873   4.654  0.0000  0.0000  0.0000
  397TMC3  CA41 5876   0.873  -1.957   4.563  0.0000  0.0000  0.0000
  397TMC3  CA42 5877   0.751  -2.024   4.590  0.0000  0.0000  0.0000
  397TMC3  CB43 5878   0.567  -2.067   4.752  0.0000  0.0000  0.0000
  397TMC3  CB44 5879   0.905  -1.729   4.867  0.0000  0.0000  0.0000
  397TMC3  CB45 5880   0.944  -2.000   4.436  0.0000  0.0000  0.0000
  397TMC3  HA46 5881   0.706  -1.892   4.904  0.0000  0.0000  0.0000
  397TMC3  HA47 5882   1.034  -1.825   4.632  0.0000  0.0000  0.0000
  397TMC3  HA48 5883   0.714  -2.102   4.523  0.0000  0.0000  0.0000
  397TMC3   O49 5884   0.503  -2.014   4.839  0.0000  0.0000  0.0000
  397TMC3   O50 5885   0.817  -1.661   4.918  0.0000  0.0000  0.0000
  397TMC3   O51 5886   0.902  -2.098   4.374  0.0000  0.0000  0.0000
  398TMC3  CA37 5887   1.128  -0.111   4.611  0.0000  0.0000  0.0000
  398TMC3  CA38 5888   1.044  -0.076   4.510  0.0000  0.0000  0.0000
  398TMC3  CA39 5889   0.953  -0.172   4.445  0.0000  0.0000  0.0000
  398TMC3  CA40 5890   0.978  -0.304   4.485  0.0000  0.0000  0.0000
  398TMC3  CA41 5891   1.079  -0.339   4.579  0.0000  0.0000  0.0000
  398TMC3  CA42 5892   1.154  -0.243   4.641  0.0000  0.0000  0.0000
  398TMC3  CB43 5893   1.194  -0.002   4.689  0.0000  0.0000  0.0000
  398TMC3  CB44 5894   0.855  -0.127   4.340  0.0000  0.0000  0.0000
  398TMC3  CB45 5895   1.098  -0.481   4.621  0.0000  0.0000  0.0000
  398TMC3  HA46 5896   1.030   0.028   4.483  0.0000  0.0000  0.0000
  398TMC3  HA47 5897   0.912  -0.380   4.445  0.0000  0.0000  0.0000
  398TMC3  HA48 5898   1.230  -0.275   4.712  0.0000  0.0000  0.0000
  398TMC3   O49 5899   1.225  -0.024   4.806  0.0000  0.0000  0.0000
  398TMC3   O50 5900   0.815  -0.012   4.337  0.0000  0.0000  0.0000
  398TMC3   O51 5901   1.141  -0.499   4.732  0.0000  0.0000  0.0000
  399TMC2   C20 5902   3.091   2.367   3.315  0.0000  0.0000  0.0000
  399TMC2  CA21 5903   3.002   2.278   3.385  0.0000  0.0000  0.0000
  399TMC2  CA22 5904   2.885   2.333   3.441  0.0000  0.0000  0.0000
  399TMC2  CA23 5905   2.802   2.254   3.528  0.0000  0.0000  0.0000
  399TMC2  CA24 5906   2.829   2.119   3.540  0.0000  0.0000  0.0000
  399TMC2  CA25 5907   2.940   2.059   3.471  0.0000  0.0000  0.0000
  399TMC2  CA26 5908   3.028   2.139   3.398  0.0000  0.0000  0.0000
  399TMC2  CB27 5909   2.660   2.309   3.575  0.0000  0.0000  0.0000
  399TMC2  CB28 5910   2.967   1.915   3.491  0.0000  0.0000  0.0000
  399TMC2  HA29 5911   2.871   2.440   3.434  0.0000  0.0000  0.0000
  399TMC2  HA30 5912   2.757   2.063   3.599  0.0000  0.0000  0.0000
  399TMC2  HA31 5913   3.109   2.090   3.346  0.0000  0.0000  0.0000
  399TMC2  HO32 5914   3.232   2.225   3.301  0.0000  0.0000  0.0000
  399TMC2   O33 5915   3.066   2.483   3.289  0.0000  0.0000  0.0000
  399TMC2   O34 5916   2.605   2.281   3.466  0.0000  0.0000  0.0000
  399TMC2   O35 5917   3.082   1.870   3.501  0.0000  0.0000  0.0000
  399TMC2  OH36 5918   3.201   2.309   3.263  0.0000  0.0000  0.0000
  400TMC3  CA37 5919   2.967   0.620   5.573  0.0000  0.0000  0.0000
  400TMC3  CA38 5920   2.960   0.639   5.434  0.0000  0.0000  0.0000
  400TMC3  CA39 5921   2.885   0.550   5.356  0.0000  0.0000  0.0000
  400TMC3  CA40 5922   2.802   0.456   5.415  0.0000  0.0000  0.0000
  400TMC3  CA41 5923   2.814   0.438   5.551  0.0000  0.0000  0.0000
  400TMC3  CA42 5924   2.893   0.518   5.631  0.0000  0.0000  0.0000
  400TMC3  CB43 5925   3.068   0.695   5.650  0.0000  0.0000  0.0000
  400TMC3  CB44 5926   2.889   0.550   5.205  0.0000  0.0000  0.0000
  400TMC3  CB45 5927   2.747   0.322   5.620  0.0000  0.0000  0.0000
  400TMC3  HA46 5928   3.025   0.714   5.391  0.0000  0.0000  0.0000
  400TMC3  HA47 5929   2.753   0.380   5.355  0.0000  0.0000  0.0000
  400TMC3  HA48 5930   2.910   0.507   5.738  0.0000  0.0000  0.0000
  400TMC3   O49 5931   3.094   0.660   5.763  0.0000  0.0000  0.0000
  400TMC3   O50 5932   2.839   0.456   5.146  0.0000  0.0000  0.0000
  400TMC3   O51 5933   2.625   0.308   5.617  0.0000  0.0000  0.0000
  401TMC2   C20 5934   0.480   2.339   5.114  0.0000  0.0000  0.0000
  401TMC2  CA21 5935   0.628   2.311   5.094  0.0000  0.0000  0.0000
  401TMC2  CA22 5936   0.663   2.177   5.105  0.0000  0.0000  0.0000
  401TMC2  CA23 5937   0.794   2.133   5.109  0.0000  0.0000  0.0000
  401TMC2  CA24 5938   0.885   2.232   5.088  0.0000  0.0000  0.0000
  401TMC2  CA25 5939   0.855   2.365   5.069  0.0000  0.0000  0.0000
  401TMC2  CA26 5940   0.725   2.409   5.081  0.0000  0.0000  0.0000
  401TMC2  CB27 5941   0.828   1.988   5.107  0.0000  0.0000  0.0000
  401TMC2  CB28 5942   0.962   2.469   5.044  0.0000  0.0000  0.0000
  401TMC2  HA29 5943   0.578   2.110   5.112  0.0000  0.0000  0.0000
  401TMC2  HA30 5944   0.987   2.195   5.075  0.0000  0.0000  0.0000
  401TMC2  HA31 5945   0.690   2.512   5.086  0.0000  0.0000  0.0000
  401TMC2  HO32 5946   0.507   2.523   5.059  0.0000  0.0000  0.0000
  401TMC2   O33 5947   0.398   2.260   5.161  0.0000  0.0000  0.0000
  401TMC2   O34 5948   0.939   1.949   5.061  0.0000  0.0000  0.0000
  401TMC2   O35 5949   0.937   2.580   4.990  0.0000  0.0000  0.0000
  401TMC2  OH36 5950   0.436   2.465   5.091  0.0000  0.0000  0.0000
  402TMC3  CA37 5951   1.185  -2.263   4.650  0.0000  0.0000  0.0000
  402TMC3  CA38 5952   1.298  -2.340   4.643  0.0000  0.0000  0.0000
  402TMC3  CA39 5953   1.428  -2.291   4.665  0.0000  0.0000  0.0000
  402TMC3  CA40 5954   1.446  -2.157   4.709  0.0000  0.0000  0.0000
  402TMC3  CA41 5955   1.333  -2.074   4.712  0.0000  0.0000  0.0000
  402TMC3  CA42 5956   1.203  -2.126   4.685  0.0000  0.0000  0.0000
  402TMC3  CB43 5957   1.052  -2.312   4.613  0.0000  0.0000  0.0000
  402TMC3  CB44 5958   1.542  -2.387   4.638  0.0000  0.0000  0.0000
  402TMC3  CB45 5959   1.351  -1.925   4.742  0.0000  0.0000  0.0000
  402TMC3  HA46 5960   1.274  -2.444   4.624  0.0000  0.0000  0.0000
  402TMC3  HA47 5961   1.545  -2.117   4.727  0.0000  0.0000  0.0000
  402TMC3  HA48 5962   1.122  -2.053   4.691  0.0000  0.0000  0.0000
  402TMC3   O49 5963   0.953  -2.279   4.667  0.0000  0.0000  0.0000
  402TMC3   O50 5964   1.505  -2.491   4.581  0.0000  0.0000  0.0000
  402TMC3   O51 5965   1.259  -1.846   4.734  0.0000  0.0000  0.0000
  403TMC2   C20 5966   1.417  -0.385   3.418  0.0000  0.0000  0.0000
  403TMC2  CA21 5967   1.454  -0.289   3.525  0.0000  0.0000  0.0000
  403TMC2  CA22 5968   1.574  -0.221   3.532  0.0000  0.0000  0.0000
  403TMC2  CA23 5969   1.615  -0.139   3.630  0.0000  0.0000  0.0000
  403TMC2  CA24 5970   1.531  -0.115   3.735  0.0000  0.0000  0.0000
  403TMC2  CA25 5971   1.408  -0.173   3.744  0.0000  0.0000  0.0000
  403TMC2  CA26 5972   1.373  -0.260   3.635  0.0000  0.0000  0.0000
  403TMC2  CB27 5973   1.744  -0.062   3.616  0.0000  0.0000  0.0000
  403TMC2  CB28 5974   1.307  -0.149   3.851  0.0000  0.0000  0.0000
  403TMC2  HA29 5975   1.634  -0.241   3.443  0.0000  0.0000  0.0000
  403TMC2  HA30 5976   1.553  -0.046   3.816  0.0000  0.0000  0.0000
  403TMC2  HA31 5977   1.276  -0.308   3.638  0.0000  0.0000  0.0000
  403TMC2  HO32 5978   1.592  -0.395   3.344  0.0000  0.0000  0.0000
  403TMC2   O33 5979   1.301  -0.430   3.406  0.0000  0.0000  0.0000
  403TMC2   O34 5980   1.807  -0.073   3.512  0.0000  0.0000  0.0000
  403TMC2   O35 5981   1.223  -0.240   3.871  0.0000  0.0000  0.0000
  403TMC2  OH36 5982   1.509  -0.443   3.331  0.0000  0.0000  0.0000
  404TMC2   C20 5983   0.842   0.922   4.821  0.0000  0.0000  0.0000
  404TMC2  CA21 5984   0.981   0.923   4.766  0.0000  0.0000  0.0000
  404TMC2  CA22 5985   1.026   1.023   4.677  0.0000  0.0000  0.0000
  404TMC2  CA23 5986   1.155   1.023   4.632  0.0000  0.0000  0.0000
  404TMC2  CA24 5987   1.238   0.921   4.674  0.0000  0.0000  0.0000
  404TMC2  CA25 5988   1.192   0.822   4.752  0.0000  0.0000  0.0000
  404TMC2  CA26 5989   1.063   0.818   4.797  0.0000  0.0000  0.0000
  404TMC2  CB27 5990   1.217   1.147   4.569  0.0000  0.0000  0.0000
  404TMC2  CB28 5991   1.293   0.716   4.781  0.0000  0.0000  0.0000
  404TMC2  HA29 5992   0.973   1.111   4.642  0.0000  0.0000  0.0000
  404TMC2  HA30 5993   1.341   0.912   4.640  0.0000  0.0000  0.0000
  404TMC2  HA31 5994   1.030   0.734   4.857  0.0000  0.0000  0.0000
  404TMC2  HO32 5995   0.842   1.080   4.724  0.0000  0.0000  0.0000
  404TMC2   O33 5996   0.796   0.839   4.901  0.0000  0.0000  0.0000
  404TMC2   O34 5997   1.340   1.153   4.560  0.0000  0.0000  0.0000
  404TMC2   O35 5998   1.407   0.744   4.816  0.0000  0.0000  0.0000
  404TMC2  OH36 5999   0.777   1.032   4.778  0.0000  0.0000  0.0000
  405TMC3  CA37 6000   4.377  -0.130   3.036  0.0000  0.0000  0.0000
  405TMC3  CA38 6001   4.394  -0.257   2.987  0.0000  0.0000  0.0000
  405TMC3  CA39 6002   4.469  -0.347   3.057  0.0000  0.0000  0.0000
  405TMC3  CA40 6003   4.539  -0.312   3.171  0.0000  0.0000  0.0000
  405TMC3  CA41 6004   4.507  -0.188   3.226  0.0000  0.0000  0.0000
  405TMC3  CA42 6005   4.444  -0.090   3.151  0.0000  0.0000  0.0000
  405TMC3  CB43 6006   4.284  -0.028   2.971  0.0000  0.0000  0.0000
  405TMC3  CB44 6007   4.464  -0.488   3.022  0.0000  0.0000  0.0000
  405TMC3  CB45 6008   4.531  -0.159   3.372  0.0000  0.0000  0.0000
  405TMC3  HA46 6009   4.333  -0.293   2.905  0.0000  0.0000  0.0000
  405TMC3  HA47 6010   4.592  -0.385   3.231  0.0000  0.0000  0.0000
  405TMC3  HA48 6011   4.403  -0.001   3.198  0.0000  0.0000  0.0000
  405TMC3   O49 6012   4.252   0.081   3.026  0.0000  0.0000  0.0000
  405TMC3   O50 6013   4.475  -0.570   3.111  0.0000  0.0000  0.0000
  405TMC3   O51 6014   4.444  -0.116   3.442  0.0000  0.0000  0.0000
  406TMC2   C20 6015   2.423  -0.072   3.061  0.0000  0.0000  0.0000
  406TMC2  CA21 6016   2.529   0.033   3.053  0.0000  0.0000  0.0000
  406TMC2  CA22 6017   2.504   0.166   3.069  0.0000  0.0000  0.0000
  406TMC2  CA23 6018   2.606   0.254   3.061  0.0000  0.0000  0.0000
  406TMC2  CA24 6019   2.737   0.219   3.042  0.0000  0.0000  0.0000
  406TMC2  CA25 6020   2.767   0.080   3.024  0.0000  0.0000  0.0000
  406TMC2  CA26 6021   2.661  -0.010   3.038  0.0000  0.0000  0.0000
  406TMC2  CB27 6022   2.579   0.390   3.113  0.0000  0.0000  0.0000
  406TMC2  CB28 6023   2.908   0.031   3.017  0.0000  0.0000  0.0000
  406TMC2  HA29 6024   2.407   0.205   3.098  0.0000  0.0000  0.0000
  406TMC2  HA30 6025   2.816   0.293   3.050  0.0000  0.0000  0.0000
  406TMC2  HA31 6026   2.684  -0.116   3.031  0.0000  0.0000  0.0000
  406TMC2  HO32 6027   2.318   0.019   3.193  0.0000  0.0000  0.0000
  406TMC2   O33 6028   2.432  -0.166   2.985  0.0000  0.0000  0.0000
  406TMC2   O34 6029   2.508   0.410   3.214  0.0000  0.0000  0.0000
  406TMC2   O35 6030   2.936  -0.089   3.006  0.0000  0.0000  0.0000
  406TMC2  OH36 6031   2.322  -0.063   3.142  0.0000  0.0000  0.0000
  407TMC3  CA37 6032   1.139   0.094   3.286  0.0000  0.0000  0.0000
  407TMC3  CA38 6033   1.115   0.124   3.423  0.0000  0.0000  0.0000
  407TMC3  CA39 6034   1.075   0.011   3.502  0.0000  0.0000  0.0000
  407TMC3  CA40 6035   1.053  -0.117   3.445  0.0000  0.0000  0.0000
  407TMC3  CA41 6036   1.083  -0.142   3.312  0.0000  0.0000  0.0000
  407TMC3  CA42 6037   1.120  -0.031   3.233  0.0000  0.0000  0.0000
  407TMC3  CB43 6038   1.194   0.199   3.194  0.0000  0.0000  0.0000
  407TMC3  CB44 6039   1.056   0.023   3.650  0.0000  0.0000  0.0000
  407TMC3  CB45 6040   1.076  -0.279   3.252  0.0000  0.0000  0.0000
  407TMC3  HA46 6041   1.139   0.220   3.468  0.0000  0.0000  0.0000
  407TMC3  HA47 6042   1.019  -0.200   3.506  0.0000  0.0000  0.0000
  407TMC3  HA48 6043   1.132  -0.039   3.125  0.0000  0.0000  0.0000
  407TMC3   O49 6044   1.263   0.174   3.095  0.0000  0.0000  0.0000
  407TMC3   O50 6045   1.016  -0.067   3.721  0.0000  0.0000  0.0000
  407TMC3   O51 6046   0.984  -0.357   3.273  0.0000  0.0000  0.0000
  408TMC3  CA37 6047   2.832   0.771   2.589  0.0000  0.0000  0.0000
  408TMC3  CA38 6048   2.841   0.901   2.646  0.0000  0.0000  0.0000
  408TMC3  CA39 6049   2.737   0.952   2.725  0.0000  0.0000  0.0000
  408TMC3  CA40 6050   2.620   0.879   2.738  0.0000  0.0000  0.0000
  408TMC3  CA41 6051   2.599   0.766   2.655  0.0000  0.0000  0.0000
  408TMC3  CA42 6052   2.704   0.711   2.575  0.0000  0.0000  0.0000
  408TMC3  CB43 6053   2.951   0.701   2.523  0.0000  0.0000  0.0000
  408TMC3  CB44 6054   2.748   1.089   2.785  0.0000  0.0000  0.0000
  408TMC3  CB45 6055   2.471   0.686   2.660  0.0000  0.0000  0.0000
  408TMC3  HA46 6056   2.931   0.959   2.634  0.0000  0.0000  0.0000
  408TMC3  HA47 6057   2.536   0.914   2.797  0.0000  0.0000  0.0000
  408TMC3  HA48 6058   2.681   0.621   2.517  0.0000  0.0000  0.0000
  408TMC3   O49 6059   2.937   0.602   2.452  0.0000  0.0000  0.0000
  408TMC3   O50 6060   2.645   1.148   2.809  0.0000  0.0000  0.0000
  408TMC3   O51 6061   2.452   0.594   2.586  0.0000  0.0000  0.0000
  409TMC1    C1 6062   4.567  -1.539   3.903  0.0000  0.0000  0.0000
  409TMC1    C2 6063   4.352  -1.752   3.500  0.0000  0.0000  0.0000
  409TMC1   CA3 6064   4.533  -1.545   3.760  0.0000  0.0000  0.0000
  409TMC1   CA4 6065   4.478  -1.653   3.700  0.0000  0.0000  0.0000
  409TMC1   CA5 6066   4.435  -1.644   3.565  0.0000  0.0000  0.0000
  409TMC1   CA6 6067   4.464  -1.526   3.488  0.0000  0.0000  0.0000
  409TMC1   CA7 6068   4.511  -1.414   3.558  0.0000  0.0000  0.0000
  409TMC1   CA8 6069   4.542  -1.421   3.695  0.0000  0.0000  0.0000
  409TMC1   CB9 6070   4.526  -1.281   3.497  0.0000  0.0000  0.0000
  409TMC1  HA10 6071   4.560  -1.330   3.751  0.0000  0.0000  0.0000
  409TMC1  HA11 6072   4.468  -1.742   3.762  0.0000  0.0000  0.0000
  409TMC1  HA12 6073   4.429  -1.512   3.386  0.0000  0.0000  0.0000
  409TMC1  HO13 6074   4.714  -1.446   3.833  0.0000  0.0000  0.0000
  409TMC1  HO14 6075   4.400  -1.873   3.649  0.0000  0.0000  0.0000
  409TMC1   O15 6076   4.505  -1.605   3.982  0.0000  0.0000  0.0000
  409TMC1   O16 6077   4.293  -1.730   3.398  0.0000  0.0000  0.0000
  409TMC1   O17 6078   4.564  -1.180   3.559  0.0000  0.0000  0.0000
  409TMC1  OH18 6079   4.686  -1.483   3.918  0.0000  0.0000  0.0000
  409TMC1  OH19 6080   4.348  -1.873   3.567  0.0000  0.0000  0.0000
  410TMC2   C20 6081   1.623   0.541   3.115  0.0000  0.0000  0.0000
  410TMC2  CA21 6082   1.595   0.550   3.266  0.0000  0.0000  0.0000
  410TMC2  CA22 6083   1.610   0.679   3.325  0.0000  0.0000  0.0000
  410TMC2  CA23 6084   1.580   0.702   3.462  0.0000  0.0000  0.0000
  410TMC2  CA24 6085   1.551   0.591   3.539  0.0000  0.0000  0.0000
  410TMC2  CA25 6086   1.530   0.466   3.486  0.0000  0.0000  0.0000
  410TMC2  CA26 6087   1.553   0.444   3.347  0.0000  0.0000  0.0000
  410TMC2  CB27 6088   1.580   0.836   3.528  0.0000  0.0000  0.0000
  410TMC2  CB28 6089   1.478   0.357   3.570  0.0000  0.0000  0.0000
  410TMC2  HA29 6090   1.639   0.760   3.259  0.0000  0.0000  0.0000
  410TMC2  HA30 6091   1.512   0.611   3.638  0.0000  0.0000  0.0000
  410TMC2  HA31 6092   1.541   0.347   3.298  0.0000  0.0000  0.0000
  410TMC2  HO32 6093   1.527   0.392   3.122  0.0000  0.0000  0.0000
  410TMC2   O33 6094   1.680   0.630   3.057  0.0000  0.0000  0.0000
  410TMC2   O34 6095   1.491   0.858   3.615  0.0000  0.0000  0.0000
  410TMC2   O35 6096   1.399   0.279   3.521  0.0000  0.0000  0.0000
  410TMC2  OH36 6097   1.588   0.427   3.055  0.0000  0.0000  0.0000
  411TMC1    C1 6098   3.536   0.267   3.977  0.0000  0.0000  0.0000
  411TMC1    C2 6099   3.718   0.442   3.564  0.0000  0.0000  0.0000
  411TMC1   CA3 6100   3.513   0.320   3.845  0.0000  0.0000  0.0000
  411TMC1   CA4 6101   3.615   0.335   3.751  0.0000  0.0000  0.0000
  411TMC1   CA5 6102   3.594   0.416   3.640  0.0000  0.0000  0.0000
  411TMC1   CA6 6103   3.468   0.462   3.611  0.0000  0.0000  0.0000
  411TMC1   CA7 6104   3.363   0.445   3.700  0.0000  0.0000  0.0000
  411TMC1   CA8 6105   3.388   0.380   3.817  0.0000  0.0000  0.0000
  411TMC1   CB9 6106   3.224   0.494   3.679  0.0000  0.0000  0.0000
  411TMC1  HA10 6107   3.311   0.377   3.893  0.0000  0.0000  0.0000
  411TMC1  HA11 6108   3.713   0.291   3.769  0.0000  0.0000  0.0000
  411TMC1  HA12 6109   3.450   0.514   3.517  0.0000  0.0000  0.0000
  411TMC1  HO13 6110   3.721   0.241   3.932  0.0000  0.0000  0.0000
  411TMC1  HO14 6111   3.651   0.615   3.558  0.0000  0.0000  0.0000
  411TMC1   O15 6112   3.447   0.265   4.059  0.0000  0.0000  0.0000
  411TMC1   O16 6113   3.818   0.367   3.547  0.0000  0.0000  0.0000
  411TMC1   O17 6114   3.149   0.514   3.772  0.0000  0.0000  0.0000
  411TMC1  OH18 6115   3.657   0.223   4.004  0.0000  0.0000  0.0000
  411TMC1  OH19 6116   3.716   0.561   3.510  0.0000  0.0000  0.0000
  412TMC2   C20 6117   1.118   1.098   3.707  0.0000  0.0000  0.0000
  412TMC2  CA21 6118   1.213   1.107   3.592  0.0000  0.0000  0.0000
  412TMC2  CA22 6119   1.220   1.012   3.494  0.0000  0.0000  0.0000
  412TMC2  CA23 6120   1.317   1.019   3.391  0.0000  0.0000  0.0000
  412TMC2  CA24 6121   1.414   1.120   3.404  0.0000  0.0000  0.0000
  412TMC2  CA25 6122   1.402   1.222   3.500  0.0000  0.0000  0.0000
  412TMC2  CA26 6123   1.293   1.215   3.590  0.0000  0.0000  0.0000
  412TMC2  CB27 6124   1.332   0.914   3.286  0.0000  0.0000  0.0000
  412TMC2  CB28 6125   1.506   1.333   3.501  0.0000  0.0000  0.0000
  412TMC2  HA29 6126   1.143   0.936   3.490  0.0000  0.0000  0.0000
  412TMC2  HA30 6127   1.494   1.133   3.332  0.0000  0.0000  0.0000
  412TMC2  HA31 6128   1.294   1.284   3.674  0.0000  0.0000  0.0000
  412TMC2  HO32 6129   1.056   0.933   3.645  0.0000  0.0000  0.0000
  412TMC2   O33 6130   1.117   1.185   3.792  0.0000  0.0000  0.0000
  412TMC2   O34 6131   1.409   0.926   3.191  0.0000  0.0000  0.0000
  412TMC2   O35 6132   1.595   1.336   3.419  0.0000  0.0000  0.0000
  412TMC2  OH36 6133   1.057   0.980   3.730  0.0000  0.0000  0.0000
  413TMC1    C1 6134   5.225   0.204   4.050  0.0000  0.0000  0.0000
  413TMC1    C2 6135   5.082  -0.078   4.436  0.0000  0.0000  0.0000
  413TMC1   CA3 6136   5.133   0.107   4.110  0.0000  0.0000  0.0000
  413TMC1   CA4 6137   5.143   0.074   4.249  0.0000  0.0000  0.0000
  413TMC1   CA5 6138   5.053  -0.017   4.301  0.0000  0.0000  0.0000
  413TMC1   CA6 6139   4.947  -0.069   4.224  0.0000  0.0000  0.0000
  413TMC1   CA7 6140   4.944  -0.031   4.085  0.0000  0.0000  0.0000
  413TMC1   CA8 6141   5.036   0.057   4.029  0.0000  0.0000  0.0000
  413TMC1   CB9 6142   4.844  -0.100   4.005  0.0000  0.0000  0.0000
  413TMC1  HA10 6143   5.032   0.084   3.924  0.0000  0.0000  0.0000
  413TMC1  HA11 6144   5.233   0.113   4.295  0.0000  0.0000  0.0000
  413TMC1  HA12 6145   4.880  -0.140   4.270  0.0000  0.0000  0.0000
  413TMC1  HO13 6146   5.287   0.272   4.222  0.0000  0.0000  0.0000
  413TMC1  HO14 6147   5.250   0.003   4.426  0.0000  0.0000  0.0000
  413TMC1   O15 6148   5.241   0.218   3.930  0.0000  0.0000  0.0000
  413TMC1   O16 6149   5.006  -0.164   4.482  0.0000  0.0000  0.0000
  413TMC1   O17 6150   4.753  -0.145   4.070  0.0000  0.0000  0.0000
  413TMC1  OH18 6151   5.298   0.290   4.127  0.0000  0.0000  0.0000
  413TMC1  OH19 6152   5.193  -0.038   4.494  0.0000  0.0000  0.0000
  414TMC1    C1 6153   3.990   0.662   2.897  0.0000  0.0000  0.0000
  414TMC1    C2 6154   3.823   0.184   2.989  0.0000  0.0000  0.0000
  414TMC1   CA3 6155   3.894   0.544   2.881  0.0000  0.0000  0.0000
  414TMC1   CA4 6156   3.907   0.416   2.938  0.0000  0.0000  0.0000
  414TMC1   CA5 6157   3.812   0.315   2.917  0.0000  0.0000  0.0000
  414TMC1   CA6 6158   3.701   0.345   2.843  0.0000  0.0000  0.0000
  414TMC1   CA7 6159   3.683   0.473   2.786  0.0000  0.0000  0.0000
  414TMC1   CA8 6160   3.776   0.573   2.809  0.0000  0.0000  0.0000
  414TMC1   CB9 6161   3.552   0.493   2.717  0.0000  0.0000  0.0000
  414TMC1  HA10 6162   3.767   0.671   2.764  0.0000  0.0000  0.0000
  414TMC1  HA11 6163   3.993   0.399   3.002  0.0000  0.0000  0.0000
  414TMC1  HA12 6164   3.634   0.268   2.806  0.0000  0.0000  0.0000
  414TMC1  HO13 6165   4.113   0.565   3.024  0.0000  0.0000  0.0000
  414TMC1  HO14 6166   4.011   0.188   2.959  0.0000  0.0000  0.0000
  414TMC1   O15 6167   3.977   0.760   2.827  0.0000  0.0000  0.0000
  414TMC1   O16 6168   3.722   0.135   3.038  0.0000  0.0000  0.0000
  414TMC1   O17 6169   3.472   0.404   2.698  0.0000  0.0000  0.0000
  414TMC1  OH18 6170   4.093   0.654   2.989  0.0000  0.0000  0.0000
  414TMC1  OH19 6171   3.948   0.133   3.009  0.0000  0.0000  0.0000
  415TMC1    C1 6172   2.021   2.369   5.393  0.0000  0.0000  0.0000
  415TMC1    C2 6173   1.991   2.041   5.029  0.0000  0.0000  0.0000
  415TMC1   CA3 6174   1.958   2.326   5.263  0.0000  0.0000  0.0000
  415TMC1   CA4 6175   1.994   2.201   5.212  0.0000  0.0000  0.0000
  415TMC1   CA5 6176   1.934   2.154   5.097  0.0000  0.0000  0.0000
  415TMC1   CA6 6177   1.823   2.216   5.043  0.0000  0.0000  0.0000
  415TMC1   CA7 6178   1.777   2.330   5.107  0.0000  0.0000  0.0000
  415TMC1   CA8 6179   1.849   2.384   5.211  0.0000  0.0000  0.0000
  415TMC1   CB9 6180   1.658   2.397   5.053  0.0000  0.0000  0.0000
  415TMC1  HA10 6181   1.820   2.478   5.258  0.0000  0.0000  0.0000
  415TMC1  HA11 6182   2.084   2.153   5.251  0.0000  0.0000  0.0000
  415TMC1  HA12 6183   1.765   2.177   4.960  0.0000  0.0000  0.0000
  415TMC1  HO13 6184   1.984   2.544   5.334  0.0000  0.0000  0.0000
  415TMC1  HO14 6185   1.821   1.977   5.030  0.0000  0.0000  0.0000
  415TMC1   O15 6186   2.078   2.290   5.470  0.0000  0.0000  0.0000
  415TMC1   O16 6187   2.112   2.017   5.024  0.0000  0.0000  0.0000
  415TMC1   O17 6188   1.666   2.417   4.931  0.0000  0.0000  0.0000
  415TMC1  OH18 6189   2.030   2.499   5.407  0.0000  0.0000  0.0000
  415TMC1  OH19 6190   1.906   1.943   4.998  0.0000  0.0000  0.0000
  416TMC2   C20 6191   3.788   1.273   5.573  0.0000  0.0000  0.0000
  416TMC2  CA21 6192   3.894   1.178   5.531  0.0000  0.0000  0.0000
  416TMC2  CA22 6193   3.866   1.047   5.490  0.0000  0.0000  0.0000
  416TMC2  CA23 6194   3.962   0.963   5.438  0.0000  0.0000  0.0000
  416TMC2  CA24 6195   4.095   1.006   5.439  0.0000  0.0000  0.0000
  416TMC2  CA25 6196   4.124   1.137   5.472  0.0000  0.0000  0.0000
  416TMC2  CA26 6197   4.024   1.217   5.523  0.0000  0.0000  0.0000
  416TMC2  CB27 6198   3.912   0.828   5.395  0.0000  0.0000  0.0000
  416TMC2  CB28 6199   4.256   1.194   5.468  0.0000  0.0000  0.0000
  416TMC2  HA29 6200   3.763   1.015   5.502  0.0000  0.0000  0.0000
  416TMC2  HA30 6201   4.174   0.946   5.396  0.0000  0.0000  0.0000
  416TMC2  HA31 6202   4.048   1.322   5.542  0.0000  0.0000  0.0000
  416TMC2  HO32 6203   3.921   1.373   5.651  0.0000  0.0000  0.0000
  416TMC2   O33 6204   3.673   1.264   5.531  0.0000  0.0000  0.0000
  416TMC2   O34 6205   3.793   0.804   5.406  0.0000  0.0000  0.0000
  416TMC2   O35 6206   4.275   1.299   5.527  0.0000  0.0000  0.0000
  416TMC2  OH36 6207   3.826   1.384   5.636  0.0000  0.0000  0.0000
  417TMC3  CA37 6208   0.330   0.069   5.014  0.0000  0.0000  0.0000
  417TMC3  CA38 6209   0.342   0.207   5.031  0.0000  0.0000  0.0000
  417TMC3  CA39 6210   0.271   0.268   5.137  0.0000  0.0000  0.0000
  417TMC3  CA40 6211   0.191   0.190   5.223  0.0000  0.0000  0.0000
  417TMC3  CA41 6212   0.169   0.052   5.196  0.0000  0.0000  0.0000
  417TMC3  CA42 6213   0.247  -0.008   5.097  0.0000  0.0000  0.0000
  417TMC3  CB43 6214   0.416  -0.001   4.914  0.0000  0.0000  0.0000
  417TMC3  CB44 6215   0.294   0.416   5.168  0.0000  0.0000  0.0000
  417TMC3  CB45 6216   0.077  -0.031   5.289  0.0000  0.0000  0.0000
  417TMC3  HA46 6217   0.402   0.261   4.959  0.0000  0.0000  0.0000
  417TMC3  HA47 6218   0.134   0.230   5.306  0.0000  0.0000  0.0000
  417TMC3  HA48 6219   0.246  -0.116   5.082  0.0000  0.0000  0.0000
  417TMC3   O49 6220   0.430   0.058   4.805  0.0000  0.0000  0.0000
  417TMC3   O50 6221   0.251   0.469   5.268  0.0000  0.0000  0.0000
  417TMC3   O51 6222  -0.003   0.024   5.356  0.0000  0.0000  0.0000
  418TMC2   C20 6223   4.926  -1.826   4.916  0.0000  0.0000  0.0000
  418TMC2  CA21 6224   5.027  -1.722   4.892  0.0000  0.0000  0.0000
  418TMC2  CA22 6225   5.038  -1.619   4.983  0.0000  0.0000  0.0000
  418TMC2  CA23 6226   5.118  -1.505   4.963  0.0000  0.0000  0.0000
  418TMC2  CA24 6227   5.178  -1.488   4.840  0.0000  0.0000  0.0000
  418TMC2  CA25 6228   5.176  -1.592   4.741  0.0000  0.0000  0.0000
  418TMC2  CA26 6229   5.095  -1.704   4.769  0.0000  0.0000  0.0000
  418TMC2  CB27 6230   5.123  -1.392   5.055  0.0000  0.0000  0.0000
  418TMC2  CB28 6231   5.246  -1.585   4.609  0.0000  0.0000  0.0000
  418TMC2  HA29 6232   4.986  -1.630   5.078  0.0000  0.0000  0.0000
  418TMC2  HA30 6233   5.243  -1.404   4.815  0.0000  0.0000  0.0000
  418TMC2  HA31 6234   5.090  -1.779   4.691  0.0000  0.0000  0.0000
  418TMC2  HO32 6235   4.953  -1.877   4.734  0.0000  0.0000  0.0000
  418TMC2   O33 6236   4.876  -1.842   5.025  0.0000  0.0000  0.0000
  418TMC2   O34 6237   5.209  -1.308   5.041  0.0000  0.0000  0.0000
  418TMC2   O35 6238   5.291  -1.687   4.557  0.0000  0.0000  0.0000
  418TMC2  OH36 6239   4.893  -1.902   4.806  0.0000  0.0000  0.0000
  419TMC1    C1 6240   3.626   0.584   5.584  0.0000  0.0000  0.0000
  419TMC1    C2 6241   3.947   0.859   5.861  0.0000  0.0000  0.0000
  419TMC1   CA3 6242   3.741   0.598   5.676  0.0000  0.0000  0.0000
  419TMC1   CA4 6243   3.786   0.725   5.722  0.0000  0.0000  0.0000
  419TMC1   CA5 6244   3.895   0.731   5.812  0.0000  0.0000  0.0000
  419TMC1   CA6 6245   3.946   0.616   5.871  0.0000  0.0000  0.0000
  419TMC1   CA7 6246   3.911   0.493   5.821  0.0000  0.0000  0.0000
  419TMC1   CA8 6247   3.805   0.486   5.725  0.0000  0.0000  0.0000
  419TMC1   CB9 6248   3.959   0.366   5.884  0.0000  0.0000  0.0000
  419TMC1  HA10 6249   3.784   0.390   5.678  0.0000  0.0000  0.0000
  419TMC1  HA11 6250   3.740   0.813   5.678  0.0000  0.0000  0.0000
  419TMC1  HA12 6251   4.030   0.615   5.939  0.0000  0.0000  0.0000
  419TMC1  HO13 6252   3.582   0.775   5.608  0.0000  0.0000  0.0000
  419TMC1  HO14 6253   4.100   0.779   5.945  0.0000  0.0000  0.0000
  419TMC1   O15 6254   3.603   0.476   5.529  0.0000  0.0000  0.0000
  419TMC1   O16 6255   3.892   0.963   5.830  0.0000  0.0000  0.0000
  419TMC1   O17 6256   3.926   0.261   5.834  0.0000  0.0000  0.0000
  419TMC1  OH18 6257   3.562   0.700   5.550  0.0000  0.0000  0.0000
  419TMC1  OH19 6258   4.063   0.868   5.934  0.0000  0.0000  0.0000
  420TMC2   C20 6259   3.727  -1.822   3.112  0.0000  0.0000  0.0000
  420TMC2  CA21 6260   3.792  -1.805   3.249  0.0000  0.0000  0.0000
  420TMC2  CA22 6261   3.766  -1.907   3.346  0.0000  0.0000  0.0000
  420TMC2  CA23 6262   3.811  -1.889   3.473  0.0000  0.0000  0.0000
  420TMC2  CA24 6263   3.891  -1.785   3.511  0.0000  0.0000  0.0000
  420TMC2  CA25 6264   3.925  -1.688   3.418  0.0000  0.0000  0.0000
  420TMC2  CA26 6265   3.878  -1.698   3.283  0.0000  0.0000  0.0000
  420TMC2  CB27 6266   3.785  -1.990   3.577  0.0000  0.0000  0.0000
  420TMC2  CB28 6267   4.022  -1.582   3.439  0.0000  0.0000  0.0000
  420TMC2  HA29 6268   3.705  -1.995   3.328  0.0000  0.0000  0.0000
  420TMC2  HA30 6269   3.927  -1.781   3.614  0.0000  0.0000  0.0000
  420TMC2  HA31 6270   3.915  -1.627   3.209  0.0000  0.0000  0.0000
  420TMC2  HO32 6271   3.723  -2.002   3.148  0.0000  0.0000  0.0000
  420TMC2   O33 6272   3.709  -1.732   3.032  0.0000  0.0000  0.0000
  420TMC2   O34 6273   3.827  -1.977   3.694  0.0000  0.0000  0.0000
  420TMC2   O35 6274   4.072  -1.522   3.349  0.0000  0.0000  0.0000
  420TMC2  OH36 6275   3.673  -1.946   3.086  0.0000  0.0000  0.0000
  421TMC1    C1 6276   5.062  -2.043   5.374  0.0000  0.0000  0.0000
  421TMC1    C2 6277   4.919  -2.429   5.645  0.0000  0.0000  0.0000
  421TMC1   CA3 6278   4.961  -2.150   5.398  0.0000  0.0000  0.0000
  421TMC1   CA4 6279   4.985  -2.244   5.500  0.0000  0.0000  0.0000
  421TMC1   CA5 6280   4.887  -2.328   5.533  0.0000  0.0000  0.0000
  421TMC1   CA6 6281   4.760  -2.327   5.465  0.0000  0.0000  0.0000
  421TMC1   CA7 6282   4.730  -2.225   5.377  0.0000  0.0000  0.0000
  421TMC1   CA8 6283   4.838  -2.145   5.339  0.0000  0.0000  0.0000
  421TMC1   CB9 6284   4.603  -2.218   5.305  0.0000  0.0000  0.0000
  421TMC1  HA10 6285   4.820  -2.082   5.253  0.0000  0.0000  0.0000
  421TMC1  HA11 6286   5.078  -2.247   5.556  0.0000  0.0000  0.0000
  421TMC1  HA12 6287   4.677  -2.389   5.498  0.0000  0.0000  0.0000
  421TMC1  HO13 6288   4.940  -1.961   5.262  0.0000  0.0000  0.0000
  421TMC1  HO14 6289   4.859  -2.568   5.533  0.0000  0.0000  0.0000
  421TMC1   O15 6290   5.167  -2.048   5.434  0.0000  0.0000  0.0000
  421TMC1   O16 6291   4.990  -2.401   5.738  0.0000  0.0000  0.0000
  421TMC1   O17 6292   4.603  -2.154   5.205  0.0000  0.0000  0.0000
  421TMC1  OH18 6293   5.030  -1.944   5.294  0.0000  0.0000  0.0000
  421TMC1  OH19 6294   4.887  -2.553   5.625  0.0000  0.0000  0.0000
  422TMC2   C20 6295   3.422  -0.261   2.298  0.0000  0.0000  0.0000
  422TMC2  CA21 6296   3.553  -0.323   2.338  0.0000  0.0000  0.0000
  422TMC2  CA22 6297   3.661  -0.241   2.375  0.0000  0.0000  0.0000
  422TMC2  CA23 6298   3.783  -0.293   2.413  0.0000  0.0000  0.0000
  422TMC2  CA24 6299   3.801  -0.433   2.421  0.0000  0.0000  0.0000
  422TMC2  CA25 6300   3.695  -0.519   2.393  0.0000  0.0000  0.0000
  422TMC2  CA26 6301   3.568  -0.464   2.353  0.0000  0.0000  0.0000
  422TMC2  CB27 6302   3.899  -0.208   2.457  0.0000  0.0000  0.0000
  422TMC2  CB28 6303   3.707  -0.670   2.430  0.0000  0.0000  0.0000
  422TMC2  HA29 6304   3.639  -0.135   2.376  0.0000  0.0000  0.0000
  422TMC2  HA30 6305   3.895  -0.472   2.457  0.0000  0.0000  0.0000
  422TMC2  HA31 6306   3.476  -0.520   2.339  0.0000  0.0000  0.0000
  422TMC2  HO32 6307   3.517  -0.108   2.222  0.0000  0.0000  0.0000
  422TMC2   O33 6308   3.319  -0.326   2.303  0.0000  0.0000  0.0000
  422TMC2   O34 6309   4.013  -0.244   2.429  0.0000  0.0000  0.0000
  422TMC2   O35 6310   3.794  -0.706   2.505  0.0000  0.0000  0.0000
  422TMC2  OH36 6311   3.425  -0.136   2.241  0.0000  0.0000  0.0000
  423TMC1    C1 6312   3.016  -1.292   6.208  0.0000  0.0000  0.0000
  423TMC1    C2 6313   2.762  -0.910   5.987  0.0000  0.0000  0.0000
  423TMC1   CA3 6314   2.901  -1.233   6.133  0.0000  0.0000  0.0000
  423TMC1   CA4 6315   2.894  -1.099   6.094  0.0000  0.0000  0.0000
  423TMC1   CA5 6316   2.781  -1.053   6.026  0.0000  0.0000  0.0000
  423TMC1   CA6 6317   2.682  -1.143   5.990  0.0000  0.0000  0.0000
  423TMC1   CA7 6318   2.688  -1.271   6.029  0.0000  0.0000  0.0000
  423TMC1   CA8 6319   2.802  -1.315   6.094  0.0000  0.0000  0.0000
  423TMC1   CB9 6320   2.588  -1.370   5.985  0.0000  0.0000  0.0000
  423TMC1  HA10 6321   2.818  -1.421   6.110  0.0000  0.0000  0.0000
  423TMC1  HA11 6322   2.969  -1.027   6.127  0.0000  0.0000  0.0000
  423TMC1  HA12 6323   2.593  -1.098   5.948  0.0000  0.0000  0.0000
  423TMC1  HO13 6324   3.040  -1.119   6.287  0.0000  0.0000  0.0000
  423TMC1  HO14 6325   2.912  -0.869   6.089  0.0000  0.0000  0.0000
  423TMC1   O15 6326   3.051  -1.408   6.210  0.0000  0.0000  0.0000
  423TMC1   O16 6327   2.674  -0.875   5.912  0.0000  0.0000  0.0000
  423TMC1   O17 6328   2.618  -1.480   5.934  0.0000  0.0000  0.0000
  423TMC1  OH18 6329   3.084  -1.206   6.285  0.0000  0.0000  0.0000
  423TMC1  OH19 6330   2.855  -0.823   6.025  0.0000  0.0000  0.0000
  424TMC1    C1 6331   2.551   1.196   5.823  0.0000  0.0000  0.0000
  424TMC1    C2 6332   2.532   1.474   5.406  0.0000  0.0000  0.0000
  424TMC1   CA3 6333   2.593   1.222   5.683  0.0000  0.0000  0.0000
  424TMC1   CA4 6334   2.541   1.325   5.607  0.0000  0.0000  0.0000
  424TMC1   CA5 6335   2.585   1.349   5.481  0.0000  0.0000  0.0000
  424TMC1   CA6 6336   2.684   1.269   5.423  0.0000  0.0000  0.0000
  424TMC1   CA7 6337   2.742   1.165   5.496  0.0000  0.0000  0.0000
  424TMC1   CA8 6338   2.693   1.141   5.623  0.0000  0.0000  0.0000
  424TMC1   CB9 6339   2.851   1.075   5.446  0.0000  0.0000  0.0000
  424TMC1  HA10 6340   2.733   1.058   5.681  0.0000  0.0000  0.0000
  424TMC1  HA11 6341   2.461   1.384   5.650  0.0000  0.0000  0.0000
  424TMC1  HA12 6342   2.713   1.293   5.321  0.0000  0.0000  0.0000
  424TMC1  HO13 6343   2.693   1.074   5.845  0.0000  0.0000  0.0000
  424TMC1  HO14 6344   2.681   1.455   5.314  0.0000  0.0000  0.0000
  424TMC1   O15 6345   2.453   1.249   5.876  0.0000  0.0000  0.0000
  424TMC1   O16 6346   2.425   1.521   5.442  0.0000  0.0000  0.0000
  424TMC1   O17 6347   2.895   0.988   5.523  0.0000  0.0000  0.0000
  424TMC1  OH18 6348   2.622   1.118   5.895  0.0000  0.0000  0.0000
  424TMC1  OH19 6349   2.609   1.519   5.304  0.0000  0.0000  0.0000
  425TMC2   C20 6350   4.950   1.631   5.819  0.0000  0.0000  0.0000
  425TMC2  CA21 6351   4.966   1.653   5.669  0.0000  0.0000  0.0000
  425TMC2  CA22 6352   5.030   1.761   5.612  0.0000  0.0000  0.0000
  425TMC2  CA23 6353   5.039   1.770   5.471  0.0000  0.0000  0.0000
  425TMC2  CA24 6354   4.982   1.676   5.387  0.0000  0.0000  0.0000
  425TMC2  CA25 6355   4.904   1.577   5.447  0.0000  0.0000  0.0000
  425TMC2  CA26 6356   4.899   1.563   5.582  0.0000  0.0000  0.0000
  425TMC2  CB27 6357   5.131   1.865   5.411  0.0000  0.0000  0.0000
  425TMC2  CB28 6358   4.828   1.493   5.349  0.0000  0.0000  0.0000
  425TMC2  HA29 6359   5.086   1.828   5.676  0.0000  0.0000  0.0000
  425TMC2  HA30 6360   4.998   1.678   5.279  0.0000  0.0000  0.0000
  425TMC2  HA31 6361   4.845   1.482   5.630  0.0000  0.0000  0.0000
  425TMC2  HO32 6362   5.113   1.714   5.850  0.0000  0.0000  0.0000
  425TMC2   O33 6363   4.865   1.564   5.869  0.0000  0.0000  0.0000
  425TMC2   O34 6364   5.138   1.893   5.292  0.0000  0.0000  0.0000
  425TMC2   O35 6365   4.831   1.520   5.234  0.0000  0.0000  0.0000
  425TMC2  OH36 6366   5.033   1.695   5.902  0.0000  0.0000  0.0000
  426TMC1    C1 6367   4.531   0.865   4.473  0.0000  0.0000  0.0000
  426TMC1    C2 6368   4.365   0.672   4.908  0.0000  0.0000  0.0000
  426TMC1   CA3 6369   4.520   0.749   4.567  0.0000  0.0000  0.0000
  426TMC1   CA4 6370   4.446   0.754   4.689  0.0000  0.0000  0.0000
  426TMC1   CA5 6371   4.424   0.648   4.774  0.0000  0.0000  0.0000
  426TMC1   CA6 6372   4.472   0.527   4.736  0.0000  0.0000  0.0000
  426TMC1   CA7 6373   4.533   0.508   4.611  0.0000  0.0000  0.0000
  426TMC1   CA8 6374   4.565   0.618   4.528  0.0000  0.0000  0.0000
  426TMC1   CB9 6375   4.572   0.375   4.570  0.0000  0.0000  0.0000
  426TMC1  HA10 6376   4.607   0.609   4.428  0.0000  0.0000  0.0000
  426TMC1  HA11 6377   4.419   0.853   4.723  0.0000  0.0000  0.0000
  426TMC1  HA12 6378   4.460   0.435   4.794  0.0000  0.0000  0.0000
  426TMC1  HO13 6379   4.554   0.987   4.608  0.0000  0.0000  0.0000
  426TMC1  HO14 6380   4.410   0.490   4.933  0.0000  0.0000  0.0000
  426TMC1   O15 6381   4.562   0.844   4.358  0.0000  0.0000  0.0000
  426TMC1   O16 6382   4.328   0.778   4.954  0.0000  0.0000  0.0000
  426TMC1   O17 6383   4.667   0.354   4.500  0.0000  0.0000  0.0000
  426TMC1  OH18 6384   4.521   0.995   4.517  0.0000  0.0000  0.0000
  426TMC1  OH19 6385   4.370   0.562   4.984  0.0000  0.0000  0.0000
  427TMC1    C1 6386   4.270  -1.014   6.144  0.0000  0.0000  0.0000
  427TMC1    C2 6387   4.197  -0.552   6.334  0.0000  0.0000  0.0000
  427TMC1   CA3 6388   4.181  -0.912   6.213  0.0000  0.0000  0.0000
  427TMC1   CA4 6389   4.216  -0.778   6.230  0.0000  0.0000  0.0000
  427TMC1   CA5 6390   4.146  -0.690   6.317  0.0000  0.0000  0.0000
  427TMC1   CA6 6391   4.026  -0.738   6.372  0.0000  0.0000  0.0000
  427TMC1   CA7 6392   3.983  -0.866   6.336  0.0000  0.0000  0.0000
  427TMC1   CA8 6393   4.066  -0.951   6.271  0.0000  0.0000  0.0000
  427TMC1   CB9 6394   3.860  -0.924   6.389  0.0000  0.0000  0.0000
  427TMC1  HA10 6395   4.031  -1.052   6.253  0.0000  0.0000  0.0000
  427TMC1  HA11 6396   4.303  -0.732   6.184  0.0000  0.0000  0.0000
  427TMC1  HA12 6397   3.975  -0.678   6.447  0.0000  0.0000  0.0000
  427TMC1  HO13 6398   4.408  -0.944   6.244  0.0000  0.0000  0.0000
  427TMC1  HO14 6399   4.025  -0.499   6.422  0.0000  0.0000  0.0000
  427TMC1   O15 6400   4.222  -1.103   6.074  0.0000  0.0000  0.0000
  427TMC1   O16 6401   4.299  -0.520   6.283  0.0000  0.0000  0.0000
  427TMC1   O17 6402   3.844  -0.906   6.510  0.0000  0.0000  0.0000
  427TMC1  OH18 6403   4.399  -0.993   6.161  0.0000  0.0000  0.0000
  427TMC1  OH19 6404   4.117  -0.470   6.413  0.0000  0.0000  0.0000
  428TMC2   C20 6405   4.751  -0.462   4.510  0.0000  0.0000  0.0000
  428TMC2  CA21 6406   4.860  -0.549   4.567  0.0000  0.0000  0.0000
  428TMC2  CA22 6407   4.879  -0.678   4.512  0.0000  0.0000  0.0000
  428TMC2  CA23 6408   4.963  -0.765   4.585  0.0000  0.0000  0.0000
  428TMC2  CA24 6409   5.024  -0.723   4.709  0.0000  0.0000  0.0000
  428TMC2  CA25 6410   5.000  -0.599   4.760  0.0000  0.0000  0.0000
  428TMC2  CA26 6411   4.910  -0.516   4.695  0.0000  0.0000  0.0000
  428TMC2  CB27 6412   4.982  -0.911   4.546  0.0000  0.0000  0.0000
  428TMC2  CB28 6413   5.041  -0.562   4.901  0.0000  0.0000  0.0000
  428TMC2  HA29 6414   4.834  -0.688   4.414  0.0000  0.0000  0.0000
  428TMC2  HA30 6415   5.088  -0.794   4.762  0.0000  0.0000  0.0000
  428TMC2  HA31 6416   4.897  -0.418   4.740  0.0000  0.0000  0.0000
  428TMC2  HO32 6417   4.867  -0.324   4.536  0.0000  0.0000  0.0000
  428TMC2   O33 6418   4.640  -0.501   4.470  0.0000  0.0000  0.0000
  428TMC2   O34 6419   5.028  -0.997   4.620  0.0000  0.0000  0.0000
  428TMC2   O35 6420   4.971  -0.483   4.958  0.0000  0.0000  0.0000
  428TMC2  OH36 6421   4.771  -0.333   4.523  0.0000  0.0000  0.0000
  429TMC1    C1 6422   6.289   2.185   5.441  0.0000  0.0000  0.0000
  429TMC1    C2 6423   6.084   1.739   5.542  0.0000  0.0000  0.0000
  429TMC1   CA3 6424   6.166   2.101   5.471  0.0000  0.0000  0.0000
  429TMC1   CA4 6425   6.177   1.965   5.497  0.0000  0.0000  0.0000
  429TMC1   CA5 6426   6.061   1.886   5.512  0.0000  0.0000  0.0000
  429TMC1   CA6 6427   5.936   1.944   5.489  0.0000  0.0000  0.0000
  429TMC1   CA7 6428   5.923   2.084   5.459  0.0000  0.0000  0.0000
  429TMC1   CA8 6429   6.040   2.158   5.455  0.0000  0.0000  0.0000
  429TMC1   CB9 6430   5.794   2.149   5.426  0.0000  0.0000  0.0000
  429TMC1  HA10 6431   6.034   2.262   5.424  0.0000  0.0000  0.0000
  429TMC1  HA11 6432   6.274   1.918   5.511  0.0000  0.0000  0.0000
  429TMC1  HA12 6433   5.848   1.883   5.510  0.0000  0.0000  0.0000
  429TMC1  HO13 6434   6.384   2.022   5.426  0.0000  0.0000  0.0000
  429TMC1  HO14 6435   5.914   1.702   5.458  0.0000  0.0000  0.0000
  429TMC1   O15 6436   6.281   2.308   5.427  0.0000  0.0000  0.0000
  429TMC1   O16 6437   6.184   1.692   5.590  0.0000  0.0000  0.0000
  429TMC1   O17 6438   5.800   2.264   5.387  0.0000  0.0000  0.0000
  429TMC1  OH18 6439   6.408   2.117   5.421  0.0000  0.0000  0.0000
  429TMC1  OH19 6440   5.983   1.652   5.505  0.0000  0.0000  0.0000
  430TMC3  CA37 6441   2.302   1.695   3.403  0.0000  0.0000  0.0000
  430TMC3  CA38 6442   2.168   1.700   3.453  0.0000  0.0000  0.0000
  430TMC3  CA39 6443   2.137   1.763   3.574  0.0000  0.0000  0.0000
  430TMC3  CA40 6444   2.241   1.815   3.640  0.0000  0.0000  0.0000
  430TMC3  CA41 6445   2.375   1.799   3.596  0.0000  0.0000  0.0000
  430TMC3  CA42 6446   2.404   1.749   3.472  0.0000  0.0000  0.0000
  430TMC3  CB43 6447   2.326   1.628   3.269  0.0000  0.0000  0.0000
  430TMC3  CB44 6448   1.996   1.766   3.633  0.0000  0.0000  0.0000
  430TMC3  CB45 6449   2.483   1.834   3.684  0.0000  0.0000  0.0000
  430TMC3  HA46 6450   2.085   1.658   3.397  0.0000  0.0000  0.0000
  430TMC3  HA47 6451   2.221   1.850   3.741  0.0000  0.0000  0.0000
  430TMC3  HA48 6452   2.504   1.750   3.430  0.0000  0.0000  0.0000
  430TMC3   O49 6453   2.423   1.665   3.200  0.0000  0.0000  0.0000
  430TMC3   O50 6454   1.970   1.835   3.728  0.0000  0.0000  0.0000
  430TMC3   O51 6455   2.589   1.872   3.636  0.0000  0.0000  0.0000
  431TMC1    C1 6456   4.853   0.523   5.971  0.0000  0.0000  0.0000
  431TMC1    C2 6457   4.350   0.521   5.936  0.0000  0.0000  0.0000
  431TMC1   CA3 6458   4.730   0.468   5.903  0.0000  0.0000  0.0000
  431TMC1   CA4 6459   4.608   0.513   5.948  0.0000  0.0000  0.0000
  431TMC1   CA5 6460   4.484   0.468   5.893  0.0000  0.0000  0.0000
  431TMC1   CA6 6461   4.496   0.384   5.780  0.0000  0.0000  0.0000
  431TMC1   CA7 6462   4.621   0.334   5.741  0.0000  0.0000  0.0000
  431TMC1   CA8 6463   4.739   0.369   5.808  0.0000  0.0000  0.0000
  431TMC1   CB9 6464   4.626   0.255   5.610  0.0000  0.0000  0.0000
  431TMC1  HA10 6465   4.833   0.333   5.766  0.0000  0.0000  0.0000
  431TMC1  HA11 6466   4.610   0.584   6.030  0.0000  0.0000  0.0000
  431TMC1  HA12 6467   4.405   0.367   5.724  0.0000  0.0000  0.0000
  431TMC1  HO13 6468   4.784   0.703   5.993  0.0000  0.0000  0.0000
  431TMC1  HO14 6469   4.408   0.539   6.111  0.0000  0.0000  0.0000
  431TMC1   O15 6470   4.952   0.443   5.975  0.0000  0.0000  0.0000
  431TMC1   O16 6471   4.259   0.530   5.854  0.0000  0.0000  0.0000
  431TMC1   O17 6472   4.717   0.274   5.532  0.0000  0.0000  0.0000
  431TMC1  OH18 6473   4.853   0.647   6.032  0.0000  0.0000  0.0000
  431TMC1  OH19 6474   4.336   0.576   6.057  0.0000  0.0000  0.0000
  432TMC1    C1 6475   4.985  -1.771   4.374  0.0000  0.0000  0.0000
  432TMC1    C2 6476   5.235  -2.182   4.268  0.0000  0.0000  0.0000
  432TMC1   CA3 6477   5.087  -1.837   4.287  0.0000  0.0000  0.0000
  432TMC1   CA4 6478   5.112  -1.973   4.298  0.0000  0.0000  0.0000
  432TMC1   CA5 6479   5.216  -2.038   4.237  0.0000  0.0000  0.0000
  432TMC1   CA6 6480   5.310  -1.959   4.169  0.0000  0.0000  0.0000
  432TMC1   CA7 6481   5.291  -1.818   4.155  0.0000  0.0000  0.0000
  432TMC1   CA8 6482   5.173  -1.760   4.205  0.0000  0.0000  0.0000
  432TMC1   CB9 6483   5.401  -1.748   4.075  0.0000  0.0000  0.0000
  432TMC1  HA10 6484   5.157  -1.654   4.183  0.0000  0.0000  0.0000
  432TMC1  HA11 6485   5.041  -2.032   4.355  0.0000  0.0000  0.0000
  432TMC1  HA12 6486   5.400  -2.008   4.135  0.0000  0.0000  0.0000
  432TMC1  HO13 6487   4.949  -1.641   4.235  0.0000  0.0000  0.0000
  432TMC1  HO14 6488   5.328  -2.224   4.089  0.0000  0.0000  0.0000
  432TMC1   O15 6489   4.959  -1.817   4.481  0.0000  0.0000  0.0000
  432TMC1   O16 6490   5.195  -2.233   4.368  0.0000  0.0000  0.0000
  432TMC1   O17 6491   5.466  -1.815   3.997  0.0000  0.0000  0.0000
  432TMC1  OH18 6492   4.914  -1.668   4.321  0.0000  0.0000  0.0000
  432TMC1  OH19 6493   5.303  -2.261   4.175  0.0000  0.0000  0.0000
  433TMC1    C1 6494   5.770   0.393   5.730  0.0000  0.0000  0.0000
  433TMC1    C2 6495   5.289   0.321   5.844  0.0000  0.0000  0.0000
  433TMC1   CA3 6496   5.625   0.419   5.705  0.0000  0.0000  0.0000
  433TMC1   CA4 6497   5.525   0.358   5.782  0.0000  0.0000  0.0000
  433TMC1   CA5 6498   5.387   0.387   5.749  0.0000  0.0000  0.0000
  433TMC1   CA6 6499   5.359   0.461   5.636  0.0000  0.0000  0.0000
  433TMC1   CA7 6500   5.455   0.532   5.567  0.0000  0.0000  0.0000
  433TMC1   CA8 6501   5.587   0.506   5.601  0.0000  0.0000  0.0000
  433TMC1   CB9 6502   5.424   0.626   5.454  0.0000  0.0000  0.0000
  433TMC1  HA10 6503   5.664   0.557   5.543  0.0000  0.0000  0.0000
  433TMC1  HA11 6504   5.543   0.289   5.863  0.0000  0.0000  0.0000
  433TMC1  HA12 6505   5.254   0.465   5.606  0.0000  0.0000  0.0000
  433TMC1  HO13 6506   5.723   0.254   5.847  0.0000  0.0000  0.0000
  433TMC1  HO14 6507   5.169   0.375   5.712  0.0000  0.0000  0.0000
  433TMC1   O15 6508   5.856   0.463   5.675  0.0000  0.0000  0.0000
  433TMC1   O16 6509   5.325   0.255   5.942  0.0000  0.0000  0.0000
  433TMC1   O17 6510   5.505   0.657   5.368  0.0000  0.0000  0.0000
  433TMC1  OH18 6511   5.806   0.284   5.807  0.0000  0.0000  0.0000
  433TMC1  OH19 6512   5.164   0.328   5.797  0.0000  0.0000  0.0000
  434TMC1    C1 6513   2.793  -1.173   2.608  0.0000  0.0000  0.0000
  434TMC1    C2 6514   2.895  -0.949   3.038  0.0000  0.0000  0.0000
  434TMC1   CA3 6515   2.891  -1.103   2.695  0.0000  0.0000  0.0000
  434TMC1   CA4 6516   2.858  -1.050   2.819  0.0000  0.0000  0.0000
  434TMC1   CA5 6517   2.945  -0.983   2.902  0.0000  0.0000  0.0000
  434TMC1   CA6 6518   3.075  -0.963   2.857  0.0000  0.0000  0.0000
  434TMC1   CA7 6519   3.120  -1.031   2.742  0.0000  0.0000  0.0000
  434TMC1   CA8 6520   3.031  -1.099   2.660  0.0000  0.0000  0.0000
  434TMC1   CB9 6521   3.266  -1.029   2.703  0.0000  0.0000  0.0000
  434TMC1  HA10 6522   3.049  -1.156   2.570  0.0000  0.0000  0.0000
  434TMC1  HA11 6523   2.759  -1.066   2.859  0.0000  0.0000  0.0000
  434TMC1  HA12 6524   3.144  -0.910   2.922  0.0000  0.0000  0.0000
  434TMC1  HO13 6525   2.917  -1.157   2.481  0.0000  0.0000  0.0000
  434TMC1  HO14 6526   3.035  -0.805   3.064  0.0000  0.0000  0.0000
  434TMC1   O15 6527   2.678  -1.201   2.650  0.0000  0.0000  0.0000
  434TMC1   O16 6528   2.803  -1.013   3.090  0.0000  0.0000  0.0000
  434TMC1   O17 6529   3.353  -0.974   2.772  0.0000  0.0000  0.0000
  434TMC1  OH18 6530   2.824  -1.186   2.478  0.0000  0.0000  0.0000
  434TMC1  OH19 6531   2.957  -0.846   3.106  0.0000  0.0000  0.0000
  435TMC2   C20 6532   4.032  -2.315   3.926  0.0000  0.0000  0.0000
  435TMC2  CA21 6533   3.926  -2.346   4.022  0.0000  0.0000  0.0000
  435TMC2  CA22 6534   3.792  -2.319   3.990  0.0000  0.0000  0.0000
  435TMC2  CA23 6535   3.693  -2.368   4.074  0.0000  0.0000  0.0000
  435TMC2  CA24 6536   3.733  -2.434   4.195  0.0000  0.0000  0.0000
  435TMC2  CA25 6537   3.865  -2.454   4.234  0.0000  0.0000  0.0000
  435TMC2  CA26 6538   3.959  -2.415   4.137  0.0000  0.0000  0.0000
  435TMC2  CB27 6539   3.549  -2.337   4.049  0.0000  0.0000  0.0000
  435TMC2  CB28 6540   3.903  -2.513   4.367  0.0000  0.0000  0.0000
  435TMC2  HA29 6541   3.771  -2.253   3.907  0.0000  0.0000  0.0000
  435TMC2  HA30 6542   3.658  -2.460   4.269  0.0000  0.0000  0.0000
  435TMC2  HA31 6543   4.063  -2.435   4.159  0.0000  0.0000  0.0000
  435TMC2  HO32 6544   3.907  -2.222   3.819  0.0000  0.0000  0.0000
  435TMC2   O33 6545   4.148  -2.345   3.950  0.0000  0.0000  0.0000
  435TMC2   O34 6546   3.474  -2.340   4.142  0.0000  0.0000  0.0000
  435TMC2   O35 6547   3.814  -2.561   4.434  0.0000  0.0000  0.0000
  435TMC2  OH36 6548   3.991  -2.269   3.806  0.0000  0.0000  0.0000
  436SOL     OW 6549   3.897   3.234   5.219  0.0000  0.0000  0.0000
  436SOL    HW1 6550   3.916   3.183   5.140  0.0000  0.0000  0.0000
  436SOL    HW2 6551   3.964   3.205   5.281  0.0000  0.0000  0.0000
  436SOL     MW 6552   3.908   3.223   5.217  0.0000  0.0000  0.0000
  437SOL     OW 6553   4.258   4.492   2.449  0.0000  0.0000  0.0000
  437SOL    HW1 6554   4.175   4.444   2.443  0.0000  0.0000  0.0000
  437SOL    HW2 6555   4.236   4.582   2.423  0.0000  0.0000  0.0000
  437SOL     MW 6556   4.244   4.498   2.445  0.0000  0.0000  0.0000
  438SOL     OW 6557   2.147   4.059   6.379  0.0000  0.0000  0.0000
  438SOL    HW1 6558   2.117   4.140   6.421  0.0000  0.0000  0.0000
  438SOL    HW2 6559   2.074   3.998   6.390  0.0000  0.0000  0.0000
  438SOL     MW 6560   2.133   4.062   6.386  0.0000  0.0000  0.0000
  439SOL     OW 6561   4.513   6.551   2.123  0.0000  0.0000  0.0000
  439SOL    HW1 6562   4.602   6.540   2.089  0.0000  0.0000  0.0000
  439SOL    HW2 6563   4.479   6.461   2.128  0.0000  0.0000  0.0000
  439SOL     MW 6564   4.521   6.537   2.119  0.0000  0.0000  0.0000
  440SOL     OW 6565   0.236   3.190   6.028  0.0000  0.0000  0.0000
  440SOL    HW1 6566   0.270   3.125   5.966  0.0000  0.0000  0.0000
  440SOL    HW2 6567   0.315   3.233   6.062  0.0000  0.0000  0.0000
  440SOL     MW 6568   0.251   3.187   6.025  0.0000  0.0000  0.0000
  441SOL     OW 6569   4.352   3.349   2.316  0.0000  0.0000  0.0000
  441SOL    HW1 6570   4.259   3.343   2.340  0.0000  0.0000  0.0000
  441SOL    HW2 6571   4.385   3.260   2.329  0.0000  0.0000  0.0000
  441SOL     MW 6572   4.344   3.336   2.321  0.0000  0.0000  0.0000
  442SOL     OW 6573   2.692   6.815   2.491  0.0000  0.0000  0.0000
  442SOL    HW1 6574   2.680   6.909   2.476  0.0000  0.0000  0.0000
  442SOL    HW2 6575   2.777   6.794   2.452  0.0000  0.0000  0.0000
  442SOL     MW 6576   2.702   6.824   2.484  0.0000  0.0000  0.0000
  443SOL     OW 6577   4.468   6.831   5.610  0.0000  0.0000  0.0000
  443SOL    HW1 6578   4.525   6.797   5.679  0.0000  0.0000  0.0000
  443SOL    HW2 6579   4.421   6.754   5.578  0.0000  0.0000  0.0000
  443SOL     MW 6580   4.469   6.816   5.615  0.0000  0.0000  0.0000
  444SOL     OW 6581   0.935   4.289   3.862  0.0000  0.0000  0.0000
  444SOL    HW1 6582   1.010   4.346   3.845  0.0000  0.0000  0.0000
  444SOL    HW2 6583   0.866   4.325   3.805  0.0000  0.0000  0.0000
  444SOL     MW 6584   0.936   4.301   3.852  0.0000  0.0000  0.0000
  445SOL     OW 6585   4.380   2.814   5.971  0.0000  0.0000  0.0000
  445SOL    HW1 6586   4.357   2.887   5.913  0.0000  0.0000  0.0000
  445SOL    HW2 6587   4.394   2.855   6.056  0.0000  0.0000  0.0000
  445SOL     MW 6588   4.379   2.829   5.974  0.0000  0.0000  0.0000
  446SOL     OW 6589   1.927   6.017   1.689  0.0000  0.0000  0.0000
  446SOL    HW1 6590   1.872   6.074   1.743  0.0000  0.0000  0.0000
  446SOL    HW2 6591   1.937   5.937   1.740  0.0000  0.0000  0.0000
  446SOL     MW 6592   1.921   6.014   1.703  0.0000  0.0000  0.0000
  447SOL     OW 6593   0.027   3.527   2.189  0.0000  0.0000  0.0000
  447SOL    HW1 6594  -0.047   3.503   2.133  0.0000  0.0000  0.0000
  447SOL    HW2 6595  -0.013   3.573   2.262  0.0000  0.0000  0.0000
  447SOL     MW 6596   0.012   3.530   2.191  0.0000  0.0000  0.0000
  448SOL     OW 6597   1.547   3.697   3.185  0.0000  0.0000  0.0000
  448SOL    HW1 6598   1.495   3.764   3.230  0.0000  0.0000  0.0000
  448SOL    HW2 6599   1.484   3.649   3.132  0.0000  0.0000  0.0000
  448SOL     MW 6600   1.532   3.700   3.184  0.0000  0.0000  0.0000
  449SOL     OW 6601   0.030   2.582   6.202  0.0000  0.0000  0.0000
  449SOL    HW1 6602   0.032   2.642   6.128  0.0000  0.0000  0.0000
  449SOL    HW2 6603   0.012   2.496   6.162  0.0000  0.0000  0.0000
  449SOL     MW 6604   0.028   2.578   6.187  0.0000  0.0000  0.0000
  450SOL     OW 6605   2.171   6.070   3.742  0.0000  0.0000  0.0000
  450SOL    HW1 6606   2.258   6.111   3.743  0.0000  0.0000  0.0000
  450SOL    HW2 6607   2.120   6.124   3.803  0.0000  0.0000  0.0000
  450SOL     MW 6608   2.176   6.083   3.750  0.0000  0.0000  0.0000
  451SOL     OW 6609   2.300   6.435   6.397  0.0000  0.0000  0.0000
  451SOL    HW1 6610   2.289   6.344   6.368  0.0000  0.0000  0.0000
  451SOL    HW2 6611   2.333   6.481   6.320  0.0000  0.0000  0.0000
  451SOL     MW 6612   2.303   6.429   6.383  0.0000  0.0000  0.0000
  452SOL     OW 6613   0.560   3.652   3.053  0.0000  0.0000  0.0000
  452SOL    HW1 6614   0.522   3.718   2.996  0.0000  0.0000  0.0000
  452SOL    HW2 6615   0.550   3.570   3.006  0.0000  0.0000  0.0000
  452SOL     MW 6616   0.554   3.650   3.040  0.0000  0.0000  0.0000
  453SOL     OW 6617   2.904   6.972   2.000  0.0000  0.0000  0.0000
  453SOL    HW1 6618   2.870   7.061   2.005  0.0000  0.0000  0.0000
  453SOL    HW2 6619   2.856   6.925   2.068  0.0000  0.0000  0.0000
  453SOL     MW 6620   2.893   6.978   2.010  0.0000  0.0000  0.0000
  454SOL     OW 6621   4.142   4.394   1.681  0.0000  0.0000  0.0000
  454SOL    HW1 6622   4.116   4.486   1.675  0.0000  0.0000  0.0000
  454SOL    HW2 6623   4.238   4.396   1.681  0.0000  0.0000  0.0000
  454SOL     MW 6624   4.151   4.407   1.680  0.0000  0.0000  0.0000
  455SOL     OW 6625   2.380   4.588   2.642  0.0000  0.0000  0.0000
  455SOL    HW1 6626   2.287   4.603   2.658  0.0000  0.0000  0.0000
  455SOL    HW2 6627   2.422   4.673   2.658  0.0000  0.0000  0.0000
  455SOL     MW 6628   2.374   4.601   2.646  0.0000  0.0000  0.0000
  456SOL     OW 6629   2.369   6.490   2.391  0.0000  0.0000  0.0000
  456SOL    HW1 6630   2.427   6.565   2.379  0.0000  0.0000  0.0000
  456SOL    HW2 6631   2.305   6.497   2.321  0.0000  0.0000  0.0000
  456SOL     MW 6632   2.368   6.500   2.381  0.0000  0.0000  0.0000
  457SOL     OW 6633   3.598   3.044   6.019  0.0000  0.0000  0.0000
  457SOL    HW1 6634   3.550   3.024   6.100  0.0000  0.0000  0.0000
  457SOL    HW2 6635   3.656   2.968   6.007  0.0000  0.0000  0.0000
  457SOL     MW 6636   3.599   3.031   6.028  0.0000  0.0000  0.0000
  458SOL     OW 6637   2.510   4.812   1.991  0.0000  0.0000  0.0000
  458SOL    HW1 6638   2.485   4.856   2.073  0.0000  0.0000  0.0000
  458SOL    HW2 6639   2.551   4.730   2.019  0.0000  0.0000  0.0000
  458SOL     MW 6640   2.512   4.807   2.006  0.0000  0.0000  0.0000
  459SOL     OW 6641   1.725   5.573   6.231  0.0000  0.0000  0.0000
  459SOL    HW1 6642   1.662   5.548   6.298  0.0000  0.0000  0.0000
  459SOL    HW2 6643   1.811   5.554   6.270  0.0000  0.0000  0.0000
  459SOL     MW 6644   1.728   5.567   6.245  0.0000  0.0000  0.0000
  460SOL     OW 6645   2.474   6.127   3.665  0.0000  0.0000  0.0000
  460SOL    HW1 6646   2.465   6.147   3.572  0.0000  0.0000  0.0000
  460SOL    HW2 6647   2.560   6.162   3.688  0.0000  0.0000  0.0000
  460SOL     MW 6648   2.484   6.134   3.656  0.0000  0.0000  0.0000
  461SOL     OW 6649   3.279   5.745   2.510  0.0000  0.0000  0.0000
  461SOL    HW1 6650   3.329   5.826   2.504  0.0000  0.0000  0.0000
  461SOL    HW2 6651   3.197   5.764   2.465  0.0000  0.0000  0.0000
  461SOL     MW 6652   3.275   5.758   2.503  0.0000  0.0000  0.0000
  462SOL     OW 6653   0.509   3.236   1.762  0.0000  0.0000  0.0000
  462SOL    HW1 6654   0.524   3.270   1.850  0.0000  0.0000  0.0000
  462SOL    HW2 6655   0.435   3.176   1.772  0.0000  0.0000  0.0000
  462SOL     MW 6656   0.501   3.233   1.775  0.0000  0.0000  0.0000
  463SOL     OW 6657   0.122   2.822   5.343  0.0000  0.0000  0.0000
  463SOL    HW1 6658   0.112   2.900   5.289  0.0000  0.0000  0.0000
  463SOL    HW2 6659   0.033   2.792   5.359  0.0000  0.0000  0.0000
  463SOL     MW 6660   0.109   2.829   5.338  0.0000  0.0000  0.0000
  464SOL     OW 6661   2.472   3.884   6.282  0.0000  0.0000  0.0000
  464SOL    HW1 6662   2.544   3.945   6.300  0.0000  0.0000  0.0000
  464SOL    HW2 6663   2.438   3.912   6.197  0.0000  0.0000  0.0000
  464SOL     MW 6664   2.477   3.896   6.273  0.0000  0.0000  0.0000
  465SOL     OW 6665   1.286   6.055   6.358  0.0000  0.0000  0.0000
  465SOL    HW1 6666   1.363   6.109   6.340  0.0000  0.0000  0.0000
  465SOL    HW2 6667   1.225   6.077   6.287  0.0000  0.0000  0.0000
  465SOL     MW 6668   1.288   6.065   6.346  0.0000  0.0000  0.0000
  466SOL     OW 6669   0.852   5.337   4.106  0.0000  0.0000  0.0000
  466SOL    HW1 6670   0.783   5.283   4.067  0.0000  0.0000  0.0000
  466SOL    HW2 6671   0.930   5.317   4.054  0.0000  0.0000  0.0000
  466SOL     MW 6672   0.853   5.327   4.094  0.0000  0.0000  0.0000
  467SOL     OW 6673   0.093   6.367   5.092  0.0000  0.0000  0.0000
  467SOL    HW1 6674   0.051   6.405   5.169  0.0000  0.0000  0.0000
  467SOL    HW2 6675   0.144   6.293   5.126  0.0000  0.0000  0.0000
  467SOL     MW 6676   0.094   6.362   5.106  0.0000  0.0000  0.0000
  468SOL     OW 6677   1.179   6.995   6.031  0.0000  0.0000  0.0000
  468SOL    HW1 6678   1.222   6.938   5.968  0.0000  0.0000  0.0000
  468SOL    HW2 6679   1.090   7.005   5.999  0.0000  0.0000  0.0000
  468SOL     MW 6680   1.173   6.989   6.018  0.0000  0.0000  0.0000
  469SOL     OW 6681   1.500   3.151   6.040  0.0000  0.0000  0.0000
  469SOL    HW1 6682   1.474   3.213   6.108  0.0000  0.0000  0.0000
  469SOL    HW2 6683   1.425   3.091   6.033  0.0000  0.0000  0.0000
  469SOL     MW 6684   1.487   3.151   6.048  0.0000  0.0000  0.0000
  470SOL     OW 6685   0.395   4.668   2.888  0.0000  0.0000  0.0000
  470SOL    HW1 6686   0.442   4.735   2.838  0.0000  0.0000  0.0000
  470SOL    HW2 6687   0.323   4.641   2.831  0.0000  0.0000  0.0000
  470SOL     MW 6688   0.391   4.673   2.874  0.0000  0.0000  0.0000
  471SOL     OW 6689   0.351   3.656   3.226  0.0000  0.0000  0.0000
  471SOL    HW1 6690   0.391   3.597   3.290  0.0000  0.0000  0.0000
  471SOL    HW2 6691   0.418   3.668   3.159  0.0000  0.0000  0.0000
  471SOL     MW 6692   0.365   3.650   3.226  0.0000  0.0000  0.0000
  472SOL     OW 6693   0.884   7.178   6.357  0.0000  0.0000  0.0000
  472SOL    HW1 6694   0.814   7.238   6.383  0.0000  0.0000  0.0000
  472SOL    HW2 6695   0.844   7.124   6.289  0.0000  0.0000  0.0000
  472SOL     MW 6696   0.869   7.178   6.351  0.0000  0.0000  0.0000
  473SOL     OW 6697   0.955   5.203   4.358  0.0000  0.0000  0.0000
  473SOL    HW1 6698   1.049   5.222   4.364  0.0000  0.0000  0.0000
  473SOL    HW2 6699   0.932   5.227   4.268  0.0000  0.0000  0.0000
  473SOL     MW 6700   0.964   5.209   4.347  0.0000  0.0000  0.0000
  474SOL     OW 6701   3.408   5.436   1.700  0.0000  0.0000  0.0000
  474SOL    HW1 6702   3.338   5.448   1.635  0.0000  0.0000  0.0000
  474SOL    HW2 6703   3.485   5.476   1.660  0.0000  0.0000  0.0000
  474SOL     MW 6704   3.409   5.443   1.686  0.0000  0.0000  0.0000
  475SOL     OW 6705   3.123   3.170   2.595  0.0000  0.0000  0.0000
  475SOL    HW1 6706   3.113   3.099   2.658  0.0000  0.0000  0.0000
  475SOL    HW2 6707   3.162   3.128   2.518  0.0000  0.0000  0.0000
  475SOL     MW 6708   3.127   3.155   2.593  0.0000  0.0000  0.0000
  476SOL     OW 6709   2.247   5.255   5.791  0.0000  0.0000  0.0000
  476SOL    HW1 6710   2.273   5.224   5.705  0.0000  0.0000  0.0000
  476SOL    HW2 6711   2.276   5.186   5.851  0.0000  0.0000  0.0000
  476SOL     MW 6712   2.254   5.242   5.788  0.0000  0.0000  0.0000
  477SOL     OW 6713   0.271   3.865   3.385  0.0000  0.0000  0.0000
  477SOL    HW1 6714   0.285   3.801   3.314  0.0000  0.0000  0.0000
  477SOL    HW2 6715   0.359   3.893   3.409  0.0000  0.0000  0.0000
  477SOL     MW 6716   0.284   3.860   3.379  0.0000  0.0000  0.0000
  478SOL     OW 6717   4.262   6.645   5.271  0.0000  0.0000  0.0000
  478SOL    HW1 6718   4.246   6.732   5.235  0.0000  0.0000  0.0000
  478SOL    HW2 6719   4.327   6.606   5.213  0.0000  0.0000  0.0000
  478SOL     MW 6720   4.268   6.651   5.259  0.0000  0.0000  0.0000
  479SOL     OW 6721   2.639   5.340   6.211  0.0000  0.0000  0.0000
  479SOL    HW1 6722   2.651   5.344   6.116  0.0000  0.0000  0.0000
  479SOL    HW2 6723   2.673   5.254   6.236  0.0000  0.0000  0.0000
  479SOL     MW 6724   2.645   5.329   6.202  0.0000  0.0000  0.0000
  480SOL     OW 6725   3.566   6.994   5.922  0.0000  0.0000  0.0000
  480SOL    HW1 6726   3.585   6.924   5.859  0.0000  0.0000  0.0000
  480SOL    HW2 6727   3.652   7.026   5.950  0.0000  0.0000  0.0000
  480SOL     MW 6728   3.580   6.989   5.918  0.0000  0.0000  0.0000
  481SOL     OW 6729   0.132   6.857   5.087  0.0000  0.0000  0.0000
  481SOL    HW1 6730   0.227   6.854   5.088  0.0000  0.0000  0.0000
  481SOL    HW2 6731   0.110   6.902   5.006  0.0000  0.0000  0.0000
  481SOL     MW 6732   0.142   6.863   5.077  0.0000  0.0000  0.0000
  482SOL     OW 6733   4.014   2.741   1.899  0.0000  0.0000  0.0000
  482SOL    HW1 6734   4.065   2.818   1.922  0.0000  0.0000  0.0000
  482SOL    HW2 6735   3.923   2.769   1.906  0.0000  0.0000  0.0000
  482SOL     MW 6736   4.008   2.755   1.903  0.0000  0.0000  0.0000
  483SOL     OW 6737   1.404   3.747   4.279  0.0000  0.0000  0.0000
  483SOL    HW1 6738   1.349   3.794   4.216  0.0000  0.0000  0.0000
  483SOL    HW2 6739   1.442   3.676   4.228  0.0000  0.0000  0.0000
  483SOL     MW 6740   1.402   3.744   4.264  0.0000  0.0000  0.0000
  484SOL     OW 6741   0.101   3.654   4.810  0.0000  0.0000  0.0000
  484SOL    HW1 6742   0.024   3.599   4.819  0.0000  0.0000  0.0000
  484SOL    HW2 6743   0.067   3.744   4.808  0.0000  0.0000  0.0000
  484SOL     MW 6744   0.087   3.659   4.811  0.0000  0.0000  0.0000
  485SOL     OW 6745   0.904   5.384   3.039  0.0000  0.0000  0.0000
  485SOL    HW1 6746   0.868   5.324   2.973  0.0000  0.0000  0.0000
  485SOL    HW2 6747   0.962   5.442   2.989  0.0000  0.0000  0.0000
  485SOL     MW 6748   0.907   5.384   3.023  0.0000  0.0000  0.0000
  486SOL     OW 6749   1.643   3.439   3.733  0.0000  0.0000  0.0000
  486SOL    HW1 6750   1.549   3.444   3.717  0.0000  0.0000  0.0000
  486SOL    HW2 6751   1.656   3.354   3.776  0.0000  0.0000  0.0000
  486SOL     MW 6752   1.632   3.428   3.736  0.0000  0.0000  0.0000
  487SOL     OW 6753   1.612   3.215   4.149  0.0000  0.0000  0.0000
  487SOL    HW1 6754   1.671   3.235   4.221  0.0000  0.0000  0.0000
  487SOL    HW2 6755   1.555   3.146   4.182  0.0000  0.0000  0.0000
  487SOL     MW 6756   1.612   3.209   4.163  0.0000  0.0000  0.0000
  488SOL     OW 6757   0.713   5.214   4.497  0.0000  0.0000  0.0000
  488SOL    HW1 6758   0.668   5.136   4.465  0.0000  0.0000  0.0000
  488SOL    HW2 6759   0.802   5.206   4.462  0.0000  0.0000  0.0000
  488SOL     MW 6760   0.719   5.203   4.488  0.0000  0.0000  0.0000
  489SOL     OW 6761   0.692   6.299   4.266  0.0000  0.0000  0.0000
  489SOL    HW1 6762   0.761   6.365   4.274  0.0000  0.0000  0.0000
  489SOL    HW2 6763   0.613   6.344   4.295  0.0000  0.0000  0.0000
  489SOL     MW 6764   0.691   6.314   4.271  0.0000  0.0000  0.0000
  490SOL     OW 6765   1.346   2.964   3.930  0.0000  0.0000  0.0000
  490SOL    HW1 6766   1.423   2.910   3.911  0.0000  0.0000  0.0000
  490SOL    HW2 6767   1.363   3.000   4.017  0.0000  0.0000  0.0000
  490SOL     MW 6768   1.358   2.962   3.939  0.0000  0.0000  0.0000
  491SOL     OW 6769   2.049   3.875   3.338  0.0000  0.0000  0.0000
  491SOL    HW1 6770   2.007   3.790   3.352  0.0000  0.0000  0.0000
  491SOL    HW2 6771   2.128   3.871   3.390  0.0000  0.0000  0.0000
  491SOL     MW 6772   2.054   3.863   3.347  0.0000  0.0000  0.0000
  492SOL     OW 6773   4.469   3.644   4.771  0.0000  0.0000  0.0000
  492SOL    HW1 6774   4.403   3.669   4.836  0.0000  0.0000  0.0000
  492SOL    HW2 6775   4.485   3.724   4.721  0.0000  0.0000  0.0000
  492SOL     MW 6776   4.462   3.658   4.773  0.0000  0.0000  0.0000
  493SOL     OW 6777   0.641   2.621   3.714  0.0000  0.0000  0.0000
  493SOL    HW1 6778   0.673   2.596   3.801  0.0000  0.0000  0.0000
  493SOL    HW2 6779   0.713   2.600   3.655  0.0000  0.0000  0.0000
  493SOL     MW 6780   0.655   2.615   3.718  0.0000  0.0000  0.0000
  494SOL     OW 6781   1.103   6.827   3.935  0.0000  0.0000  0.0000
  494SOL    HW1 6782   1.038   6.767   3.972  0.0000  0.0000  0.0000
  494SOL    HW2 6783   1.165   6.842   4.005  0.0000  0.0000  0.0000
  494SOL     MW 6784   1.102   6.821   3.949  0.0000  0.0000  0.0000
  495SOL     OW 6785   1.141   3.302   3.282  0.0000  0.0000  0.0000
  495SOL    HW1 6786   1.171   3.221   3.323  0.0000  0.0000  0.0000
  495SOL    HW2 6787   1.089   3.273   3.207  0.0000  0.0000  0.0000
  495SOL     MW 6788   1.138   3.287   3.277  0.0000  0.0000  0.0000
  496SOL     OW 6789   0.917   5.675   3.258  0.0000  0.0000  0.0000
  496SOL    HW1 6790   0.892   5.623   3.335  0.0000  0.0000  0.0000
  496SOL    HW2 6791   0.888   5.764   3.279  0.0000  0.0000  0.0000
  496SOL     MW 6792   0.910   5.680   3.271  0.0000  0.0000  0.0000
  497SOL     OW 6793   4.583   3.787   4.532  0.0000  0.0000  0.0000
  497SOL    HW1 6794   4.596   3.750   4.445  0.0000  0.0000  0.0000
  497SOL    HW2 6795   4.663   3.836   4.551  0.0000  0.0000  0.0000
  497SOL     MW 6796   4.595   3.789   4.523  0.0000  0.0000  0.0000
  498SOL     OW 6797   0.739   4.504   6.289  0.0000  0.0000  0.0000
  498SOL    HW1 6798   0.739   4.457   6.206  0.0000  0.0000  0.0000
  498SOL    HW2 6799   0.700   4.589   6.269  0.0000  0.0000  0.0000
  498SOL     MW 6800   0.734   4.509   6.276  0.0000  0.0000  0.0000
  499SOL     OW 6801   2.911   3.024   3.888  0.0000  0.0000  0.0000
  499SOL    HW1 6802   2.878   3.030   3.798  0.0000  0.0000  0.0000
  499SOL    HW2 6803   2.858   3.088   3.936  0.0000  0.0000  0.0000
  499SOL     MW 6804   2.899   3.033   3.882  0.0000  0.0000  0.0000
  500SOL     OW 6805   4.270   3.914   5.049  0.0000  0.0000  0.0000
  500SOL    HW1 6806   4.276   3.838   4.991  0.0000  0.0000  0.0000
  500SOL    HW2 6807   4.336   3.899   5.116  0.0000  0.0000  0.0000
  500SOL     MW 6808   4.279   3.902   5.050  0.0000  0.0000  0.0000
  501SOL     OW 6809   4.556   2.925   4.299  0.0000  0.0000  0.0000
  501SOL    HW1 6810   4.550   3.014   4.335  0.0000  0.0000  0.0000
  501SOL    HW2 6811   4.489   2.876   4.347  0.0000  0.0000  0.0000
  501SOL     MW 6812   4.546   2.930   4.310  0.0000  0.0000  0.0000
  502SOL     OW 6813   0.065   5.109   4.167  0.0000  0.0000  0.0000
  502SOL    HW1 6814   0.089   5.034   4.221  0.0000  0.0000  0.0000
  502SOL    HW2 6815  -0.031   5.104   4.160  0.0000  0.0000  0.0000
  502SOL     MW 6816   0.055   5.098   4.173  0.0000  0.0000  0.0000
  503SOL     OW 6817   1.368   3.487   3.721  0.0000  0.0000  0.0000
  503SOL    HW1 6818   1.352   3.393   3.722  0.0000  0.0000  0.0000
  503SOL    HW2 6819   1.331   3.517   3.637  0.0000  0.0000  0.0000
  503SOL     MW 6820   1.361   3.479   3.710  0.0000  0.0000  0.0000
  504SOL     OW 6821   1.338   3.843   3.356  0.0000  0.0000  0.0000
  504SOL    HW1 6822   1.288   3.891   3.290  0.0000  0.0000  0.0000
  504SOL    HW2 6823   1.404   3.906   3.385  0.0000  0.0000  0.0000
  504SOL     MW 6824   1.340   3.858   3.351  0.0000  0.0000  0.0000
  505SOL     OW 6825   0.697   3.831   4.819  0.0000  0.0000  0.0000
  505SOL    HW1 6826   0.686   3.741   4.850  0.0000  0.0000  0.0000
  505SOL    HW2 6827   0.755   3.871   4.884  0.0000  0.0000  0.0000
  505SOL     MW 6828   0.703   3.824   4.832  0.0000  0.0000  0.0000
  506SOL     OW 6829   1.060   3.001   3.973  0.0000  0.0000  0.0000
  506SOL    HW1 6830   1.051   2.968   3.884  0.0000  0.0000  0.0000
  506SOL    HW2 6831   1.150   2.981   3.998  0.0000  0.0000  0.0000
  506SOL     MW 6832   1.071   2.994   3.965  0.0000  0.0000  0.0000
  507SOL     OW 6833   0.632   3.518   4.616  0.0000  0.0000  0.0000
  507SOL    HW1 6834   0.649   3.512   4.710  0.0000  0.0000  0.0000
  507SOL    HW2 6835   0.547   3.562   4.609  0.0000  0.0000  0.0000
  507SOL     MW 6836   0.623   3.523   4.628  0.0000  0.0000  0.0000
  508SOL     OW 6837   1.034   5.097   3.513  0.0000  0.0000  0.0000
  508SOL    HW1 6838   1.020   5.138   3.428  0.0000  0.0000  0.0000
  508SOL    HW2 6839   0.956   5.120   3.564  0.0000  0.0000  0.0000
  508SOL     MW 6840   1.021   5.105   3.509  0.0000  0.0000  0.0000
  509SOL     OW 6841   1.564   7.085   6.512  0.0000  0.0000  0.0000
  509SOL    HW1 6842   1.540   7.173   6.542  0.0000  0.0000  0.0000
  509SOL    HW2 6843   1.539   7.083   6.420  0.0000  0.0000  0.0000
  509SOL     MW 6844   1.558   7.096   6.504  0.0000  0.0000  0.0000
  510SOL     OW 6845   0.670   5.510   4.505  0.0000  0.0000  0.0000
  510SOL    HW1 6846   0.695   5.544   4.420  0.0000  0.0000  0.0000
  510SOL    HW2 6847   0.670   5.415   4.494  0.0000  0.0000  0.0000
  510SOL     MW 6848   0.673   5.502   4.493  0.0000  0.0000  0.0000
  511SOL     OW 6849   2.072   5.413   1.808  0.0000  0.0000  0.0000
  511SOL    HW1 6850   1.977   5.426   1.807  0.0000  0.0000  0.0000
  511SOL    HW2 6851   2.088   5.361   1.887  0.0000  0.0000  0.0000
  511SOL     MW 6852   2.061   5.408   1.818  0.0000  0.0000  0.0000
  512SOL     OW 6853   0.589   3.578   4.907  0.0000  0.0000  0.0000
  512SOL    HW1 6854   0.506   3.626   4.899  0.0000  0.0000  0.0000
  512SOL    HW2 6855   0.564   3.493   4.944  0.0000  0.0000  0.0000
  512SOL     MW 6856   0.575   3.573   4.911  0.0000  0.0000  0.0000
  513SOL     OW 6857   1.127   6.004   3.977  0.0000  0.0000  0.0000
  513SOL    HW1 6858   1.213   6.045   3.966  0.0000  0.0000  0.0000
  513SOL    HW2 6859   1.128   5.930   3.916  0.0000  0.0000  0.0000
  513SOL     MW 6860   1.139   6.000   3.967  0.0000  0.0000  0.0000
  514SOL     OW 6861   0.448   3.101   3.832  0.0000  0.0000  0.0000
  514SOL    HW1 6862   0.501   3.029   3.799  0.0000  0.0000  0.0000
  514SOL    HW2 6863   0.410   3.068   3.914  0.0000  0.0000  0.0000
  514SOL     MW 6864   0.450   3.087   3.838  0.0000  0.0000  0.0000
  515SOL     OW 6865   4.616   2.711   3.642  0.0000  0.0000  0.0000
  515SOL    HW1 6866   4.676   2.744   3.575  0.0000  0.0000  0.0000
  515SOL    HW2 6867   4.590   2.625   3.610  0.0000  0.0000  0.0000
  515SOL     MW 6868   4.620   2.704   3.629  0.0000  0.0000  0.0000
  516SOL     OW 6869   0.286   4.786   5.940  0.0000  0.0000  0.0000
  516SOL    HW1 6870   0.334   4.869   5.943  0.0000  0.0000  0.0000
  516SOL    HW2 6871   0.314   4.740   6.019  0.0000  0.0000  0.0000
  516SOL     MW 6872   0.296   4.791   5.951  0.0000  0.0000  0.0000
  517SOL     OW 6873   0.599   2.601   5.818  0.0000  0.0000  0.0000
  517SOL    HW1 6874   0.675   2.567   5.771  0.0000  0.0000  0.0000
  517SOL    HW2 6875   0.616   2.695   5.826  0.0000  0.0000  0.0000
  517SOL     MW 6876   0.612   2.609   5.813  0.0000  0.0000  0.0000
  518SOL     OW 6877   2.985   2.860   6.289  0.0000  0.0000  0.0000
  518SOL    HW1 6878   2.924   2.836   6.358  0.0000  0.0000  0.0000
  518SOL    HW2 6879   2.959   2.807   6.214  0.0000  0.0000  0.0000
  518SOL     MW 6880   2.974   2.850   6.288  0.0000  0.0000  0.0000
  519SOL     OW 6881   1.980   4.468   6.257  0.0000  0.0000  0.0000
  519SOL    HW1 6882   1.979   4.487   6.163  0.0000  0.0000  0.0000
  519SOL    HW2 6883   2.017   4.547   6.297  0.0000  0.0000  0.0000
  519SOL     MW 6884   1.984   4.481   6.250  0.0000  0.0000  0.0000
  520SOL     OW 6885   0.347   3.054   2.550  0.0000  0.0000  0.0000
  520SOL    HW1 6886   0.424   3.089   2.505  0.0000  0.0000  0.0000
  520SOL    HW2 6887   0.336   2.966   2.513  0.0000  0.0000  0.0000
  520SOL     MW 6888   0.355   3.047   2.539  0.0000  0.0000  0.0000
  521SOL     OW 6889   4.047   6.475   4.728  0.0000  0.0000  0.0000
  521SOL    HW1 6890   4.057   6.569   4.713  0.0000  0.0000  0.0000
  521SOL    HW2 6891   4.124   6.435   4.687  0.0000  0.0000  0.0000
  521SOL     MW 6892   4.058   6.482   4.720  0.0000  0.0000  0.0000
  522SOL     OW 6893   1.294   3.231   3.765  0.0000  0.0000  0.0000
  522SOL    HW1 6894   1.339   3.174   3.827  0.0000  0.0000  0.0000
  522SOL    HW2 6895   1.203   3.201   3.765  0.0000  0.0000  0.0000
  522SOL     MW 6896   1.288   3.220   3.773  0.0000  0.0000  0.0000
  523SOL     OW 6897   4.651   6.764   5.828  0.0000  0.0000  0.0000
  523SOL    HW1 6898   4.691   6.850   5.839  0.0000  0.0000  0.0000
  523SOL    HW2 6899   4.723   6.702   5.843  0.0000  0.0000  0.0000
  523SOL     MW 6900   4.666   6.767   5.831  0.0000  0.0000  0.0000
  524SOL     OW 6901   3.996   6.067   1.606  0.0000  0.0000  0.0000
  524SOL    HW1 6902   3.976   6.139   1.546  0.0000  0.0000  0.0000
  524SOL    HW2 6903   3.914   6.054   1.654  0.0000  0.0000  0.0000
  524SOL     MW 6904   3.982   6.075   1.604  0.0000  0.0000  0.0000
  525SOL     OW 6905   1.779   3.584   5.159  0.0000  0.0000  0.0000
  525SOL    HW1 6906   1.792   3.634   5.078  0.0000  0.0000  0.0000
  525SOL    HW2 6907   1.688   3.555   5.154  0.0000  0.0000  0.0000
  525SOL     MW 6908   1.769   3.587   5.148  0.0000  0.0000  0.0000
  526SOL     OW 6909   1.797   5.466   1.768  0.0000  0.0000  0.0000
  526SOL    HW1 6910   1.800   5.511   1.684  0.0000  0.0000  0.0000
  526SOL    HW2 6911   1.712   5.422   1.768  0.0000  0.0000  0.0000
  526SOL     MW 6912   1.786   5.466   1.757  0.0000  0.0000  0.0000
  527SOL     OW 6913   0.291   4.208   5.593  0.0000  0.0000  0.0000
  527SOL    HW1 6914   0.274   4.205   5.687  0.0000  0.0000  0.0000
  527SOL    HW2 6915   0.205   4.201   5.553  0.0000  0.0000  0.0000
  527SOL     MW 6916   0.277   4.207   5.600  0.0000  0.0000  0.0000
  528SOL     OW 6917   0.368   4.503   5.474  0.0000  0.0000  0.0000
  528SOL    HW1 6918   0.444   4.449   5.496  0.0000  0.0000  0.0000
  528SOL    HW2 6919   0.296   4.441   5.463  0.0000  0.0000  0.0000
  528SOL     MW 6920   0.368   4.488   5.476  0.0000  0.0000  0.0000
  529SOL     OW 6921   1.208   6.013   1.780  0.0000  0.0000  0.0000
  529SOL    HW1 6922   1.295   5.984   1.809  0.0000  0.0000  0.0000
  529SOL    HW2 6923   1.227   6.067   1.703  0.0000  0.0000  0.0000
  529SOL     MW 6924   1.222   6.016   1.773  0.0000  0.0000  0.0000
  530SOL     OW 6925   0.979   4.527   1.906  0.0000  0.0000  0.0000
  530SOL    HW1 6926   0.963   4.445   1.953  0.0000  0.0000  0.0000
  530SOL    HW2 6927   1.047   4.571   1.957  0.0000  0.0000  0.0000
  530SOL     MW 6928   0.986   4.522   1.919  0.0000  0.0000  0.0000
  531SOL     OW 6929   1.166   3.238   5.677  0.0000  0.0000  0.0000
  531SOL    HW1 6930   1.174   3.147   5.651  0.0000  0.0000  0.0000
  531SOL    HW2 6931   1.242   3.255   5.732  0.0000  0.0000  0.0000
  531SOL     MW 6932   1.177   3.229   5.681  0.0000  0.0000  0.0000
  532SOL     OW 6933   0.583   5.857   6.238  0.0000  0.0000  0.0000
  532SOL    HW1 6934   0.587   5.935   6.294  0.0000  0.0000  0.0000
  532SOL    HW2 6935   0.562   5.891   6.152  0.0000  0.0000  0.0000
  532SOL     MW 6936   0.581   5.872   6.234  0.0000  0.0000  0.0000
  533SOL     OW 6937   2.344   5.286   6.188  0.0000  0.0000  0.0000
  533SOL    HW1 6938   2.438   5.282   6.207  0.0000  0.0000  0.0000
  533SOL    HW2 6939   2.331   5.373   6.150  0.0000  0.0000  0.0000
  533SOL     MW 6940   2.355   5.297   6.186  0.0000  0.0000  0.0000
  534SOL     OW 6941   2.109   6.929   5.862  0.0000  0.0000  0.0000
  534SOL    HW1 6942   2.151   7.011   5.835  0.0000  0.0000  0.0000
  534SOL    HW2 6943   2.076   6.948   5.950  0.0000  0.0000  0.0000
  534SOL     MW 6944   2.110   6.942   5.870  0.0000  0.0000  0.0000
  535SOL     OW 6945   0.044   3.809   1.711  0.0000  0.0000  0.0000
  535SOL    HW1 6946  -0.051   3.810   1.728  0.0000  0.0000  0.0000
  535SOL    HW2 6947   0.056   3.740   1.647  0.0000  0.0000  0.0000
  535SOL     MW 6948   0.033   3.800   1.705  0.0000  0.0000  0.0000
  536SOL     OW 6949   3.173   6.699   1.771  0.0000  0.0000  0.0000
  536SOL    HW1 6950   3.094   6.652   1.801  0.0000  0.0000  0.0000
  536SOL    HW2 6951   3.245   6.641   1.795  0.0000  0.0000  0.0000
  536SOL     MW 6952   3.172   6.685   1.778  0.0000  0.0000  0.0000
  537SOL     OW 6953   0.675   2.895   5.837  0.0000  0.0000  0.0000
  537SOL    HW1 6954   0.754   2.885   5.889  0.0000  0.0000  0.0000
  537SOL    HW2 6955   0.699   2.956   5.767  0.0000  0.0000  0.0000
  537SOL     MW 6956   0.688   2.902   5.835  0.0000  0.0000  0.0000
  538SOL     OW 6957   2.169   3.373   3.352  0.0000  0.0000  0.0000
  538SOL    HW1 6958   2.191   3.458   3.316  0.0000  0.0000  0.0000
  538SOL    HW2 6959   2.151   3.318   3.275  0.0000  0.0000  0.0000
  538SOL     MW 6960   2.169   3.377   3.337  0.0000  0.0000  0.0000
  539SOL     OW 6961   4.447   3.523   1.679  0.0000  0.0000  0.0000
  539SOL    HW1 6962   4.467   3.614   1.698  0.0000  0.0000  0.0000
  539SOL    HW2 6963   4.385   3.526   1.606  0.0000  0.0000  0.0000
  539SOL     MW 6964   4.442   3.535   1.672  0.0000  0.0000  0.0000
  540SOL     OW 6965   0.317   2.792   2.487  0.0000  0.0000  0.0000
  540SOL    HW1 6966   0.385   2.785   2.554  0.0000  0.0000  0.0000
  540SOL    HW2 6967   0.241   2.748   2.524  0.0000  0.0000  0.0000
  540SOL     MW 6968   0.316   2.786   2.500  0.0000  0.0000  0.0000
  541SOL     OW 6969   3.627   6.338   4.787  0.0000  0.0000  0.0000
  541SOL    HW1 6970   3.641   6.339   4.882  0.0000  0.0000  0.0000
  541SOL    HW2 6971   3.688   6.403   4.752  0.0000  0.0000  0.0000
  541SOL     MW 6972   3.637   6.347   4.795  0.0000  0.0000  0.0000
  542SOL     OW 6973   3.280   6.964   5.780  0.0000  0.0000  0.0000
  542SOL    HW1 6974   3.336   6.980   5.856  0.0000  0.0000  0.0000
  542SOL    HW2 6975   3.283   6.869   5.768  0.0000  0.0000  0.0000
  542SOL     MW 6976   3.288   6.954   5.788  0.0000  0.0000  0.0000
  543SOL     OW 6977   4.281   6.340   4.623  0.0000  0.0000  0.0000
  543SOL    HW1 6978   4.309   6.285   4.550  0.0000  0.0000  0.0000
  543SOL    HW2 6979   4.307   6.291   4.701  0.0000  0.0000  0.0000
  543SOL     MW 6980   4.288   6.326   4.624  0.0000  0.0000  0.0000
  544SOL     OW 6981   4.013   6.721   5.537  0.0000  0.0000  0.0000
  544SOL    HW1 6982   3.970   6.659   5.597  0.0000  0.0000  0.0000
  544SOL    HW2 6983   3.964   6.712   5.455  0.0000  0.0000  0.0000
  544SOL     MW 6984   4.000   6.711   5.534  0.0000  0.0000  0.0000
  545SOL     OW 6985   1.882   3.070   1.730  0.0000  0.0000  0.0000
  545SOL    HW1 6986   1.862   2.990   1.680  0.0000  0.0000  0.0000
  545SOL    HW2 6987   1.863   3.141   1.668  0.0000  0.0000  0.0000
  545SOL     MW 6988   1.877   3.069   1.715  0.0000  0.0000  0.0000
  546SOL     OW 6989   0.949   4.002   3.348  0.0000  0.0000  0.0000
  546SOL    HW1 6990   1.012   3.974   3.415  0.0000  0.0000  0.0000
  546SOL    HW2 6991   0.945   4.097   3.358  0.0000  0.0000  0.0000
  546SOL     MW 6992   0.957   4.011   3.358  0.0000  0.0000  0.0000
  547SOL     OW 6993   3.979   2.665   3.080  0.0000  0.0000  0.0000
  547SOL    HW1 6994   3.985   2.631   2.991  0.0000  0.0000  0.0000
  547SOL    HW2 6995   4.067   2.694   3.101  0.0000  0.0000  0.0000
  547SOL     MW 6996   3.991   2.665   3.071  0.0000  0.0000  0.0000
  548SOL     OW 6997   3.409   5.886   1.662  0.0000  0.0000  0.0000
  548SOL    HW1 6998   3.398   5.860   1.754  0.0000  0.0000  0.0000
  548SOL    HW2 6999   3.322   5.879   1.625  0.0000  0.0000  0.0000
  548SOL     MW 7000   3.396   5.882   1.670  0.0000  0.0000  0.0000
  549SOL     OW 7001   1.164   5.325   3.618  0.0000  0.0000  0.0000
  549SOL    HW1 7002   1.135   5.249   3.568  0.0000  0.0000  0.0000
  549SOL    HW2 7003   1.086   5.350   3.669  0.0000  0.0000  0.0000
  549SOL     MW 7004   1.150   5.318   3.618  0.0000  0.0000  0.0000
  550SOL     OW 7005   2.323   2.983   3.292  0.0000  0.0000  0.0000
  550SOL    HW1 7006   2.387   3.046   3.259  0.0000  0.0000  0.0000
  550SOL    HW2 7007   2.375   2.908   3.321  0.0000  0.0000  0.0000
  550SOL     MW 7008   2.338   2.982   3.292  0.0000  0.0000  0.0000
  551SOL     OW 7009   3.410   5.794   1.920  0.0000  0.0000  0.0000
  551SOL    HW1 7010   3.456   5.709   1.922  0.0000  0.0000  0.0000
  551SOL    HW2 7011   3.318   5.770   1.914  0.0000  0.0000  0.0000
  551SOL     MW 7012   3.404   5.779   1.920  0.0000  0.0000  0.0000
  552SOL     OW 7013   0.471   5.715   4.517  0.0000  0.0000  0.0000
  552SOL    HW1 7014   0.521   5.781   4.470  0.0000  0.0000  0.0000
  552SOL    HW2 7015   0.530   5.639   4.521  0.0000  0.0000  0.0000
  552SOL     MW 7016   0.486   5.713   4.512  0.0000  0.0000  0.0000
  553SOL     OW 7017   0.321   4.821   3.111  0.0000  0.0000  0.0000
  553SOL    HW1 7018   0.338   4.774   3.029  0.0000  0.0000  0.0000
  553SOL    HW2 7019   0.255   4.886   3.088  0.0000  0.0000  0.0000
  553SOL     MW 7020   0.314   4.823   3.097  0.0000  0.0000  0.0000
  554SOL     OW 7021   1.543   5.497   2.973  0.0000  0.0000  0.0000
  554SOL    HW1 7022   1.571   5.406   2.987  0.0000  0.0000  0.0000
  554SOL    HW2 7023   1.477   5.513   3.041  0.0000  0.0000  0.0000
  554SOL     MW 7024   1.538   5.487   2.984  0.0000  0.0000  0.0000
  555SOL     OW 7025   1.113   2.787   6.040  0.0000  0.0000  0.0000
  555SOL    HW1 7026   1.183   2.849   6.022  0.0000  0.0000  0.0000
  555SOL    HW2 7027   1.067   2.824   6.115  0.0000  0.0000  0.0000
  555SOL     MW 7028   1.116   2.800   6.048  0.0000  0.0000  0.0000
  556SOL     OW 7029   1.812   5.900   3.254  0.0000  0.0000  0.0000
  556SOL    HW1 7030   1.794   5.813   3.218  0.0000  0.0000  0.0000
  556SOL    HW2 7031   1.750   5.908   3.327  0.0000  0.0000  0.0000
  556SOL     MW 7032   1.801   5.889   3.259  0.0000  0.0000  0.0000
  557SOL     OW 7033   1.751   5.621   3.109  0.0000  0.0000  0.0000
  557SOL    HW1 7034   1.727   5.576   3.028  0.0000  0.0000  0.0000
  557SOL    HW2 7035   1.844   5.600   3.121  0.0000  0.0000  0.0000
  557SOL     MW 7036   1.760   5.612   3.100  0.0000  0.0000  0.0000
  558SOL     OW 7037   2.507   2.707   5.709  0.0000  0.0000  0.0000
  558SOL    HW1 7038   2.453   2.741   5.780  0.0000  0.0000  0.0000
  558SOL    HW2 7039   2.499   2.612   5.716  0.0000  0.0000  0.0000
  558SOL     MW 7040   2.499   2.699   5.720  0.0000  0.0000  0.0000
  559SOL     OW 7041   0.079   4.656   3.192  0.0000  0.0000  0.0000
  559SOL    HW1 7042   0.020   4.719   3.152  0.0000  0.0000  0.0000
  559SOL    HW2 7043   0.167   4.691   3.176  0.0000  0.0000  0.0000
  559SOL     MW 7044   0.083   4.669   3.184  0.0000  0.0000  0.0000
  560SOL     OW 7045   3.167   4.612   2.211  0.0000  0.0000  0.0000
  560SOL    HW1 7046   3.178   4.678   2.143  0.0000  0.0000  0.0000
  560SOL    HW2 7047   3.250   4.566   2.215  0.0000  0.0000  0.0000
  560SOL     MW 7048   3.179   4.615   2.203  0.0000  0.0000  0.0000
  561SOL     OW 7049   4.585   7.211   5.729  0.0000  0.0000  0.0000
  561SOL    HW1 7050   4.603   7.304   5.711  0.0000  0.0000  0.0000
  561SOL    HW2 7051   4.493   7.200   5.708  0.0000  0.0000  0.0000
  561SOL     MW 7052   4.575   7.222   5.724  0.0000  0.0000  0.0000
  562SOL     OW 7053   0.426   5.024   6.367  0.0000  0.0000  0.0000
  562SOL    HW1 7054   0.331   5.037   6.364  0.0000  0.0000  0.0000
  562SOL    HW2 7055   0.452   5.021   6.275  0.0000  0.0000  0.0000
  562SOL     MW 7056   0.417   5.025   6.354  0.0000  0.0000  0.0000
  563SOL     OW 7057   3.490   3.571   2.172  0.0000  0.0000  0.0000
  563SOL    HW1 7058   3.541   3.572   2.253  0.0000  0.0000  0.0000
  563SOL    HW2 7059   3.550   3.607   2.106  0.0000  0.0000  0.0000
  563SOL     MW 7060   3.505   3.576   2.174  0.0000  0.0000  0.0000
  564SOL     OW 7061   2.624   6.752   6.055  0.0000  0.0000  0.0000
  564SOL    HW1 7062   2.554   6.813   6.031  0.0000  0.0000  0.0000
  564SOL    HW2 7063   2.702   6.808   6.062  0.0000  0.0000  0.0000
  564SOL     MW 7064   2.625   6.768   6.053  0.0000  0.0000  0.0000
  565SOL     OW 7065   1.715   3.576   3.948  0.0000  0.0000  0.0000
  565SOL    HW1 7066   1.704   3.512   3.877  0.0000  0.0000  0.0000
  565SOL    HW2 7067   1.785   3.634   3.917  0.0000  0.0000  0.0000
  565SOL     MW 7068   1.723   3.575   3.934  0.0000  0.0000  0.0000
  566SOL     OW 7069   3.845   6.942   2.981  0.0000  0.0000  0.0000
  566SOL    HW1 7070   3.875   7.014   2.925  0.0000  0.0000  0.0000
  566SOL    HW2 7071   3.760   6.917   2.945  0.0000  0.0000  0.0000
  566SOL     MW 7072   3.838   6.949   2.969  0.0000  0.0000  0.0000
  567SOL     OW 7073   1.613   6.385   3.338  0.0000  0.0000  0.0000
  567SOL    HW1 7074   1.600   6.480   3.339  0.0000  0.0000  0.0000
  567SOL    HW2 7075   1.594   6.358   3.428  0.0000  0.0000  0.0000
  567SOL     MW 7076   1.609   6.394   3.350  0.0000  0.0000  0.0000
  568SOL     OW 7077   0.953   5.928   2.725  0.0000  0.0000  0.0000
  568SOL    HW1 7078   0.889   5.902   2.791  0.0000  0.0000  0.0000
  568SOL    HW2 7079   0.991   6.009   2.758  0.0000  0.0000  0.0000
  568SOL     MW 7080   0.949   5.935   2.738  0.0000  0.0000  0.0000
  569SOL     OW 7081   4.659   6.434   5.629  0.0000  0.0000  0.0000
  569SOL    HW1 7082   4.720   6.498   5.667  0.0000  0.0000  0.0000
  569SOL    HW2 7083   4.662   6.452   5.535  0.0000  0.0000  0.0000
  569SOL     MW 7084   4.668   6.445   5.622  0.0000  0.0000  0.0000
  570SOL     OW 7085   0.346   3.790   5.817  0.0000  0.0000  0.0000
  570SOL    HW1 7086   0.439   3.805   5.835  0.0000  0.0000  0.0000
  570SOL    HW2 7087   0.335   3.815   5.725  0.0000  0.0000  0.0000
  570SOL     MW 7088   0.357   3.795   5.807  0.0000  0.0000  0.0000
  571SOL     OW 7089   1.814   4.813   6.281  0.0000  0.0000  0.0000
  571SOL    HW1 7090   1.764   4.889   6.254  0.0000  0.0000  0.0000
  571SOL    HW2 7091   1.806   4.751   6.208  0.0000  0.0000  0.0000
  571SOL     MW 7092   1.807   4.815   6.268  0.0000  0.0000  0.0000
  572SOL     OW 7093   4.000   5.156   3.369  0.0000  0.0000  0.0000
  572SOL    HW1 7094   3.931   5.122   3.426  0.0000  0.0000  0.0000
  572SOL    HW2 7095   3.971   5.243   3.345  0.0000  0.0000  0.0000
  572SOL     MW 7096   3.987   5.163   3.374  0.0000  0.0000  0.0000
  573SOL     OW 7097   4.299   4.335   2.667  0.0000  0.0000  0.0000
  573SOL    HW1 7098   4.254   4.256   2.635  0.0000  0.0000  0.0000
  573SOL    HW2 7099   4.307   4.391   2.589  0.0000  0.0000  0.0000
  573SOL     MW 7100   4.294   4.332   2.652  0.0000  0.0000  0.0000
  574SOL     OW 7101   0.533   6.153   1.622  0.0000  0.0000  0.0000
  574SOL    HW1 7102   0.575   6.193   1.546  0.0000  0.0000  0.0000
  574SOL    HW2 7103   0.501   6.227   1.673  0.0000  0.0000  0.0000
  574SOL     MW 7104   0.534   6.168   1.619  0.0000  0.0000  0.0000
  575SOL     OW 7105   2.034   6.033   3.397  0.0000  0.0000  0.0000
  575SOL    HW1 7106   2.029   5.975   3.473  0.0000  0.0000  0.0000
  575SOL    HW2 7107   1.959   6.009   3.343  0.0000  0.0000  0.0000
  575SOL     MW 7108   2.024   6.022   3.400  0.0000  0.0000  0.0000
  576SOL     OW 7109   1.057   6.176   2.802  0.0000  0.0000  0.0000
  576SOL    HW1 7110   1.088   6.251   2.750  0.0000  0.0000  0.0000
  576SOL    HW2 7111   1.119   6.171   2.875  0.0000  0.0000  0.0000
  576SOL     MW 7112   1.069   6.185   2.805  0.0000  0.0000  0.0000
  577SOL     OW 7113   0.837   2.628   3.502  0.0000  0.0000  0.0000
  577SOL    HW1 7114   0.918   2.654   3.545  0.0000  0.0000  0.0000
  577SOL    HW2 7115   0.840   2.672   3.417  0.0000  0.0000  0.0000
  577SOL     MW 7116   0.848   2.637   3.496  0.0000  0.0000  0.0000
  578SOL     OW 7117   2.113   3.041   2.685  0.0000  0.0000  0.0000
  578SOL    HW1 7118   2.094   3.062   2.776  0.0000  0.0000  0.0000
  578SOL    HW2 7119   2.207   3.052   2.676  0.0000  0.0000  0.0000
  578SOL     MW 7120   2.123   3.045   2.696  0.0000  0.0000  0.0000
  579SOL     OW 7121   0.102   4.539   2.885  0.0000  0.0000  0.0000
  579SOL    HW1 7122   0.078   4.554   2.977  0.0000  0.0000  0.0000
  579SOL    HW2 7123   0.022   4.558   2.836  0.0000  0.0000  0.0000
  579SOL     MW 7124   0.088   4.543   2.891  0.0000  0.0000  0.0000
  580SOL     OW 7125   1.765   6.080   3.075  0.0000  0.0000  0.0000
  580SOL    HW1 7126   1.788   6.020   3.146  0.0000  0.0000  0.0000
  580SOL    HW2 7127   1.761   6.025   2.997  0.0000  0.0000  0.0000
  580SOL     MW 7128   1.768   6.065   3.074  0.0000  0.0000  0.0000
  581SOL     OW 7129   1.312   6.562   2.160  0.0000  0.0000  0.0000
  581SOL    HW1 7130   1.349   6.537   2.075  0.0000  0.0000  0.0000
  581SOL    HW2 7131   1.294   6.656   2.152  0.0000  0.0000  0.0000
  581SOL     MW 7132   1.315   6.571   2.148  0.0000  0.0000  0.0000
  582SOL     OW 7133   4.424   5.051   3.260  0.0000  0.0000  0.0000
  582SOL    HW1 7134   4.366   5.005   3.321  0.0000  0.0000  0.0000
  582SOL    HW2 7135   4.480   4.983   3.224  0.0000  0.0000  0.0000
  582SOL     MW 7136   4.424   5.036   3.263  0.0000  0.0000  0.0000
  583SOL     OW 7137   1.946   3.863   6.374  0.0000  0.0000  0.0000
  583SOL    HW1 7138   1.955   3.773   6.343  0.0000  0.0000  0.0000
  583SOL    HW2 7139   1.902   3.855   6.458  0.0000  0.0000  0.0000
  583SOL     MW 7140   1.942   3.850   6.381  0.0000  0.0000  0.0000
  584SOL     OW 7141   1.580   5.638   4.560  0.0000  0.0000  0.0000
  584SOL    HW1 7142   1.656   5.696   4.563  0.0000  0.0000  0.0000
  584SOL    HW2 7143   1.505   5.698   4.552  0.0000  0.0000  0.0000
  584SOL     MW 7144   1.580   5.654   4.559  0.0000  0.0000  0.0000
  585SOL     OW 7145   1.241   3.894   4.096  0.0000  0.0000  0.0000
  585SOL    HW1 7146   1.207   3.965   4.042  0.0000  0.0000  0.0000
  585SOL    HW2 7147   1.258   3.823   4.034  0.0000  0.0000  0.0000
  585SOL     MW 7148   1.239   3.894   4.081  0.0000  0.0000  0.0000
  586SOL     OW 7149   0.910   5.154   4.679  0.0000  0.0000  0.0000
  586SOL    HW1 7150   0.839   5.186   4.624  0.0000  0.0000  0.0000
  586SOL    HW2 7151   0.891   5.062   4.693  0.0000  0.0000  0.0000
  586SOL     MW 7152   0.898   5.146   4.673  0.0000  0.0000  0.0000
  587SOL     OW 7153   0.169   4.143   4.120  0.0000  0.0000  0.0000
  587SOL    HW1 7154   0.124   4.223   4.149  0.0000  0.0000  0.0000
  587SOL    HW2 7155   0.106   4.099   4.063  0.0000  0.0000  0.0000
  587SOL     MW 7156   0.155   4.148   4.116  0.0000  0.0000  0.0000
  588SOL     OW 7157   4.612   5.374   5.171  0.0000  0.0000  0.0000
  588SOL    HW1 7158   4.671   5.428   5.224  0.0000  0.0000  0.0000
  588SOL    HW2 7159   4.624   5.406   5.082  0.0000  0.0000  0.0000
  588SOL     MW 7160   4.621   5.385   5.167  0.0000  0.0000  0.0000
  589SOL     OW 7161   1.721   2.807   2.752  0.0000  0.0000  0.0000
  589SOL    HW1 7162   1.812   2.817   2.724  0.0000  0.0000  0.0000
  589SOL    HW2 7163   1.677   2.885   2.720  0.0000  0.0000  0.0000
  589SOL     MW 7164   1.727   2.818   2.744  0.0000  0.0000  0.0000
  590SOL     OW 7165   1.217   6.884   6.263  0.0000  0.0000  0.0000
  590SOL    HW1 7166   1.206   6.922   6.176  0.0000  0.0000  0.0000
  590SOL    HW2 7167   1.164   6.939   6.321  0.0000  0.0000  0.0000
  590SOL     MW 7168   1.209   6.896   6.259  0.0000  0.0000  0.0000
  591SOL     OW 7169   1.255   4.746   4.329  0.0000  0.0000  0.0000
  591SOL    HW1 7170   1.217   4.834   4.328  0.0000  0.0000  0.0000
  591SOL    HW2 7171   1.350   4.762   4.338  0.0000  0.0000  0.0000
  591SOL     MW 7172   1.263   4.760   4.330  0.0000  0.0000  0.0000
  592SOL     OW 7173   0.139   6.453   3.448  0.0000  0.0000  0.0000
  592SOL    HW1 7174   0.100   6.392   3.510  0.0000  0.0000  0.0000
  592SOL    HW2 7175   0.156   6.401   3.370  0.0000  0.0000  0.0000
  592SOL     MW 7176   0.136   6.438   3.446  0.0000  0.0000  0.0000
  593SOL     OW 7177   1.304   5.130   2.633  0.0000  0.0000  0.0000
  593SOL    HW1 7178   1.370   5.199   2.624  0.0000  0.0000  0.0000
  593SOL    HW2 7179   1.354   5.053   2.662  0.0000  0.0000  0.0000
  593SOL     MW 7180   1.320   5.129   2.636  0.0000  0.0000  0.0000
  594SOL     OW 7181   0.391   5.119   4.709  0.0000  0.0000  0.0000
  594SOL    HW1 7182   0.464   5.175   4.735  0.0000  0.0000  0.0000
  594SOL    HW2 7183   0.319   5.180   4.690  0.0000  0.0000  0.0000
  594SOL     MW 7184   0.391   5.135   4.710  0.0000  0.0000  0.0000
  595SOL     OW 7185   4.292   6.210   5.468  0.0000  0.0000  0.0000
  595SOL    HW1 7186   4.340   6.258   5.535  0.0000  0.0000  0.0000
  595SOL    HW2 7187   4.287   6.120   5.500  0.0000  0.0000  0.0000
  595SOL     MW 7188   4.297   6.204   5.481  0.0000  0.0000  0.0000
  596SOL     OW 7189   1.125   3.646   6.356  0.0000  0.0000  0.0000
  596SOL    HW1 7190   1.201   3.632   6.413  0.0000  0.0000  0.0000
  596SOL    HW2 7191   1.080   3.722   6.393  0.0000  0.0000  0.0000
  596SOL     MW 7192   1.129   3.654   6.368  0.0000  0.0000  0.0000
  597SOL     OW 7193   0.793   6.231   3.525  0.0000  0.0000  0.0000
  597SOL    HW1 7194   0.774   6.212   3.617  0.0000  0.0000  0.0000
  597SOL    HW2 7195   0.763   6.322   3.513  0.0000  0.0000  0.0000
  597SOL     MW 7196   0.787   6.241   3.536  0.0000  0.0000  0.0000
  598SOL     OW 7197   0.839   5.544   3.923  0.0000  0.0000  0.0000
  598SOL    HW1 7198   0.930   5.567   3.907  0.0000  0.0000  0.0000
  598SOL    HW2 7199   0.843   5.468   3.981  0.0000  0.0000  0.0000
  598SOL     MW 7200   0.851   5.537   3.929  0.0000  0.0000  0.0000
  599SOL     OW 7201   0.079   4.797   3.430  0.0000  0.0000  0.0000
  599SOL    HW1 7202   0.034   4.759   3.506  0.0000  0.0000  0.0000
  599SOL    HW2 7203   0.077   4.728   3.364  0.0000  0.0000  0.0000
  599SOL     MW 7204   0.073   4.783   3.431  0.0000  0.0000  0.0000
  600SOL     OW 7205   0.043   5.085   3.402  0.0000  0.0000  0.0000
  600SOL    HW1 7206   0.037   4.989   3.404  0.0000  0.0000  0.0000
  600SOL    HW2 7207  -0.026   5.112   3.341  0.0000  0.0000  0.0000
  600SOL     MW 7208   0.033   5.076   3.394  0.0000  0.0000  0.0000
  601SOL     OW 7209   4.126   6.413   4.288  0.0000  0.0000  0.0000
  601SOL    HW1 7210   4.102   6.451   4.203  0.0000  0.0000  0.0000
  601SOL    HW2 7211   4.043   6.385   4.326  0.0000  0.0000  0.0000
  601SOL     MW 7212   4.112   6.415   4.282  0.0000  0.0000  0.0000
  602SOL     OW 7213   1.432   6.743   3.707  0.0000  0.0000  0.0000
  602SOL    HW1 7214   1.484   6.743   3.788  0.0000  0.0000  0.0000
  602SOL    HW2 7215   1.452   6.827   3.666  0.0000  0.0000  0.0000
  602SOL     MW 7216   1.442   6.754   3.712  0.0000  0.0000  0.0000
  603SOL     OW 7217   0.866   5.190   4.952  0.0000  0.0000  0.0000
  603SOL    HW1 7218   0.877   5.187   4.857  0.0000  0.0000  0.0000
  603SOL    HW2 7219   0.854   5.283   4.971  0.0000  0.0000  0.0000
  603SOL     MW 7220   0.866   5.202   4.942  0.0000  0.0000  0.0000
  604SOL     OW 7221   1.005   7.102   3.949  0.0000  0.0000  0.0000
  604SOL    HW1 7222   1.038   7.143   4.029  0.0000  0.0000  0.0000
  604SOL    HW2 7223   1.047   7.016   3.947  0.0000  0.0000  0.0000
  604SOL     MW 7224   1.015   7.096   3.960  0.0000  0.0000  0.0000
  605SOL     OW 7225   1.039   4.889   4.964  0.0000  0.0000  0.0000
  605SOL    HW1 7226   1.133   4.872   4.957  0.0000  0.0000  0.0000
  605SOL    HW2 7227   1.033   4.981   4.990  0.0000  0.0000  0.0000
  605SOL     MW 7228   1.051   4.899   4.966  0.0000  0.0000  0.0000
  606SOL     OW 7229   0.327   2.996   5.837  0.0000  0.0000  0.0000
  606SOL    HW1 7230   0.335   2.958   5.749  0.0000  0.0000  0.0000
  606SOL    HW2 7231   0.355   2.925   5.895  0.0000  0.0000  0.0000
  606SOL     MW 7232   0.332   2.982   5.833  0.0000  0.0000  0.0000
  607SOL     OW 7233   1.560   4.456   5.423  0.0000  0.0000  0.0000
  607SOL    HW1 7234   1.481   4.403   5.407  0.0000  0.0000  0.0000
  607SOL    HW2 7235   1.526   4.541   5.449  0.0000  0.0000  0.0000
  607SOL     MW 7236   1.545   4.460   5.424  0.0000  0.0000  0.0000
  608SOL     OW 7237   1.826   4.353   3.847  0.0000  0.0000  0.0000
  608SOL    HW1 7238   1.850   4.313   3.763  0.0000  0.0000  0.0000
  608SOL    HW2 7239   1.909   4.383   3.884  0.0000  0.0000  0.0000
  608SOL     MW 7240   1.840   4.352   3.841  0.0000  0.0000  0.0000
  609SOL     OW 7241   1.339   3.676   3.929  0.0000  0.0000  0.0000
  609SOL    HW1 7242   1.367   3.624   4.003  0.0000  0.0000  0.0000
  609SOL    HW2 7243   1.359   3.623   3.852  0.0000  0.0000  0.0000
  609SOL     MW 7244   1.345   3.662   3.928  0.0000  0.0000  0.0000
  610SOL     OW 7245   4.341   3.640   5.011  0.0000  0.0000  0.0000
  610SOL    HW1 7246   4.314   3.662   5.101  0.0000  0.0000  0.0000
  610SOL    HW2 7247   4.389   3.558   5.020  0.0000  0.0000  0.0000
  610SOL     MW 7248   4.344   3.632   5.024  0.0000  0.0000  0.0000
  611SOL     OW 7249   0.843   5.892   3.592  0.0000  0.0000  0.0000
  611SOL    HW1 7250   0.860   5.976   3.634  0.0000  0.0000  0.0000
  611SOL    HW2 7251   0.819   5.913   3.502  0.0000  0.0000  0.0000
  611SOL     MW 7252   0.842   5.906   3.586  0.0000  0.0000  0.0000
  612SOL     OW 7253   0.930   5.478   3.523  0.0000  0.0000  0.0000
  612SOL    HW1 7254   0.918   5.411   3.457  0.0000  0.0000  0.0000
  612SOL    HW2 7255   0.857   5.466   3.583  0.0000  0.0000  0.0000
  612SOL     MW 7256   0.919   5.468   3.522  0.0000  0.0000  0.0000
  613SOL     OW 7257   1.000   4.920   4.434  0.0000  0.0000  0.0000
  613SOL    HW1 7258   0.930   4.905   4.497  0.0000  0.0000  0.0000
  613SOL    HW2 7259   0.980   5.004   4.394  0.0000  0.0000  0.0000
  613SOL     MW 7260   0.988   4.929   4.437  0.0000  0.0000  0.0000
  614SOL     OW 7261   1.669   2.616   4.036  0.0000  0.0000  0.0000
  614SOL    HW1 7262   1.635   2.534   4.002  0.0000  0.0000  0.0000
  614SOL    HW2 7263   1.763   2.614   4.017  0.0000  0.0000  0.0000
  614SOL     MW 7264   1.677   2.605   4.029  0.0000  0.0000  0.0000
  615SOL     OW 7265   0.844   5.994   3.355  0.0000  0.0000  0.0000
  615SOL    HW1 7266   0.843   6.083   3.390  0.0000  0.0000  0.0000
  615SOL    HW2 7267   0.924   5.991   3.301  0.0000  0.0000  0.0000
  615SOL     MW 7268   0.855   6.005   3.352  0.0000  0.0000  0.0000
  616SOL     OW 7269   3.027   3.836   1.578  0.0000  0.0000  0.0000
  616SOL    HW1 7270   3.038   3.784   1.658  0.0000  0.0000  0.0000
  616SOL    HW2 7271   2.936   3.865   1.581  0.0000  0.0000  0.0000
  616SOL     MW 7272   3.016   3.833   1.589  0.0000  0.0000  0.0000
  617SOL     OW 7273   3.555   2.691   2.278  0.0000  0.0000  0.0000
  617SOL    HW1 7274   3.467   2.655   2.270  0.0000  0.0000  0.0000
  617SOL    HW2 7275   3.607   2.640   2.216  0.0000  0.0000  0.0000
  617SOL     MW 7276   3.551   2.679   2.269  0.0000  0.0000  0.0000
  618SOL     OW 7277   4.618   4.146   6.338  0.0000  0.0000  0.0000
  618SOL    HW1 7278   4.575   4.069   6.301  0.0000  0.0000  0.0000
  618SOL    HW2 7279   4.712   4.127   6.332  0.0000  0.0000  0.0000
  618SOL     MW 7280   4.625   4.133   6.332  0.0000  0.0000  0.0000
  619SOL     OW 7281   3.730   6.688   5.519  0.0000  0.0000  0.0000
  619SOL    HW1 7282   3.698   6.598   5.509  0.0000  0.0000  0.0000
  619SOL    HW2 7283   3.698   6.715   5.604  0.0000  0.0000  0.0000
  619SOL     MW 7284   3.722   6.680   5.529  0.0000  0.0000  0.0000
  620SOL     OW 7285   1.374   3.315   5.831  0.0000  0.0000  0.0000
  620SOL    HW1 7286   1.427   3.266   5.895  0.0000  0.0000  0.0000
  620SOL    HW2 7287   1.406   3.405   5.837  0.0000  0.0000  0.0000
  620SOL     MW 7288   1.385   3.320   5.840  0.0000  0.0000  0.0000
  621SOL     OW 7289   3.145   2.966   2.788  0.0000  0.0000  0.0000
  621SOL    HW1 7290   3.084   2.902   2.822  0.0000  0.0000  0.0000
  621SOL    HW2 7291   3.219   2.914   2.756  0.0000  0.0000  0.0000
  621SOL     MW 7292   3.147   2.951   2.788  0.0000  0.0000  0.0000
  622SOL     OW 7293   0.453   3.892   6.235  0.0000  0.0000  0.0000
  622SOL    HW1 7294   0.380   3.846   6.276  0.0000  0.0000  0.0000
  622SOL    HW2 7295   0.421   3.916   6.148  0.0000  0.0000  0.0000
  622SOL     MW 7296   0.439   3.889   6.229  0.0000  0.0000  0.0000
  623SOL     OW 7297   1.830   2.705   6.071  0.0000  0.0000  0.0000
  623SOL    HW1 7298   1.918   2.681   6.102  0.0000  0.0000  0.0000
  623SOL    HW2 7299   1.846   2.755   5.991  0.0000  0.0000  0.0000
  623SOL     MW 7300   1.844   2.708   6.064  0.0000  0.0000  0.0000
  624SOL     OW 7301   3.379   3.061   1.757  0.0000  0.0000  0.0000
  624SOL    HW1 7302   3.341   3.090   1.675  0.0000  0.0000  0.0000
  624SOL    HW2 7303   3.463   3.023   1.733  0.0000  0.0000  0.0000
  624SOL     MW 7304   3.385   3.060   1.743  0.0000  0.0000  0.0000
  625SOL     OW 7305   3.366   2.794   2.681  0.0000  0.0000  0.0000
  625SOL    HW1 7306   3.360   2.700   2.663  0.0000  0.0000  0.0000
  625SOL    HW2 7307   3.400   2.800   2.770  0.0000  0.0000  0.0000
  625SOL     MW 7308   3.370   2.782   2.690  0.0000  0.0000  0.0000
  626SOL     OW 7309   0.100   5.879   4.439  0.0000  0.0000  0.0000
  626SOL    HW1 7310   0.018   5.925   4.456  0.0000  0.0000  0.0000
  626SOL    HW2 7311   0.163   5.918   4.500  0.0000  0.0000  0.0000
  626SOL     MW 7312   0.097   5.890   4.449  0.0000  0.0000  0.0000
  627SOL     OW 7313   2.405   5.576   5.554  0.0000  0.0000  0.0000
  627SOL    HW1 7314   2.423   5.557   5.646  0.0000  0.0000  0.0000
  627SOL    HW2 7315   2.353   5.656   5.555  0.0000  0.0000  0.0000
  627SOL     MW 7316   2.401   5.584   5.566  0.0000  0.0000  0.0000
  628SOL     OW 7317   1.916   4.910   1.604  0.0000  0.0000  0.0000
  628SOL    HW1 7318   1.880   4.821   1.602  0.0000  0.0000  0.0000
  628SOL    HW2 7319   1.967   4.917   1.524  0.0000  0.0000  0.0000
  628SOL     MW 7320   1.918   4.899   1.593  0.0000  0.0000  0.0000
  629SOL     OW 7321   0.043   6.022   1.670  0.0000  0.0000  0.0000
  629SOL    HW1 7322   0.017   5.973   1.748  0.0000  0.0000  0.0000
  629SOL    HW2 7323  -0.034   6.021   1.614  0.0000  0.0000  0.0000
  629SOL     MW 7324   0.029   6.015   1.673  0.0000  0.0000  0.0000
  630SOL     OW 7325   0.971   4.288   6.325  0.0000  0.0000  0.0000
  630SOL    HW1 7326   0.904   4.287   6.257  0.0000  0.0000  0.0000
  630SOL    HW2 7327   0.973   4.379   6.355  0.0000  0.0000  0.0000
  630SOL     MW 7328   0.963   4.300   6.320  0.0000  0.0000  0.0000
  631SOL     OW 7329   1.123   4.117   3.581  0.0000  0.0000  0.0000
  631SOL    HW1 7330   1.120   4.022   3.590  0.0000  0.0000  0.0000
  631SOL    HW2 7331   1.179   4.133   3.505  0.0000  0.0000  0.0000
  631SOL     MW 7332   1.130   4.107   3.572  0.0000  0.0000  0.0000
  632SOL     OW 7333   1.088   5.435   6.167  0.0000  0.0000  0.0000
  632SOL    HW1 7334   1.004   5.444   6.123  0.0000  0.0000  0.0000
  632SOL    HW2 7335   1.133   5.365   6.119  0.0000  0.0000  0.0000
  632SOL     MW 7336   1.083   5.427   6.155  0.0000  0.0000  0.0000
  633SOL     OW 7337   0.771   5.252   5.978  0.0000  0.0000  0.0000
  633SOL    HW1 7338   0.838   5.183   5.979  0.0000  0.0000  0.0000
  633SOL    HW2 7339   0.690   5.206   5.996  0.0000  0.0000  0.0000
  633SOL     MW 7340   0.769   5.237   5.980  0.0000  0.0000  0.0000
  634SOL     OW 7341   0.595   4.012   1.731  0.0000  0.0000  0.0000
  634SOL    HW1 7342   0.526   3.946   1.724  0.0000  0.0000  0.0000
  634SOL    HW2 7343   0.674   3.962   1.750  0.0000  0.0000  0.0000
  634SOL     MW 7344   0.596   3.997   1.732  0.0000  0.0000  0.0000
  635SOL     OW 7345   1.641   3.092   2.229  0.0000  0.0000  0.0000
  635SOL    HW1 7346   1.687   3.075   2.146  0.0000  0.0000  0.0000
  635SOL    HW2 7347   1.647   3.187   2.241  0.0000  0.0000  0.0000
  635SOL     MW 7348   1.648   3.102   2.219  0.0000  0.0000  0.0000
  636SOL     OW 7349   1.374   5.808   6.161  0.0000  0.0000  0.0000
  636SOL    HW1 7350   1.429   5.872   6.205  0.0000  0.0000  0.0000
  636SOL    HW2 7351   1.428   5.774   6.090  0.0000  0.0000  0.0000
  636SOL     MW 7352   1.388   5.812   6.157  0.0000  0.0000  0.0000
  637SOL     OW 7353   3.857   4.430   1.983  0.0000  0.0000  0.0000
  637SOL    HW1 7354   3.820   4.408   1.897  0.0000  0.0000  0.0000
  637SOL    HW2 7355   3.947   4.396   1.979  0.0000  0.0000  0.0000
  637SOL     MW 7356   3.864   4.422   1.971  0.0000  0.0000  0.0000
  638SOL     OW 7357   0.522   5.135   6.099  0.0000  0.0000  0.0000
  638SOL    HW1 7358   0.440   5.139   6.049  0.0000  0.0000  0.0000
  638SOL    HW2 7359   0.521   5.214   6.152  0.0000  0.0000  0.0000
  638SOL     MW 7360   0.511   5.146   6.099  0.0000  0.0000  0.0000
  639SOL     OW 7361   2.805   2.608   2.026  0.0000  0.0000  0.0000
  639SOL    HW1 7362   2.824   2.634   2.116  0.0000  0.0000  0.0000
  639SOL    HW2 7363   2.739   2.671   1.996  0.0000  0.0000  0.0000
  639SOL     MW 7364   2.799   2.620   2.034  0.0000  0.0000  0.0000
  640SOL     OW 7365   0.534   4.620   5.864  0.0000  0.0000  0.0000
  640SOL    HW1 7366   0.459   4.675   5.888  0.0000  0.0000  0.0000
  640SOL    HW2 7367   0.604   4.682   5.843  0.0000  0.0000  0.0000
  640SOL     MW 7368   0.533   4.636   5.864  0.0000  0.0000  0.0000
  641SOL     OW 7369   3.257   6.423   5.831  0.0000  0.0000  0.0000
  641SOL    HW1 7370   3.311   6.344   5.831  0.0000  0.0000  0.0000
  641SOL    HW2 7371   3.202   6.414   5.909  0.0000  0.0000  0.0000
  641SOL     MW 7372   3.257   6.412   5.841  0.0000  0.0000  0.0000
  642SOL     OW 7373   3.898   6.623   3.186  0.0000  0.0000  0.0000
  642SOL    HW1 7374   3.940   6.700   3.224  0.0000  0.0000  0.0000
  642SOL    HW2 7375   3.899   6.558   3.256  0.0000  0.0000  0.0000
  642SOL     MW 7376   3.903   6.625   3.201  0.0000  0.0000  0.0000
  643SOL     OW 7377   3.334   3.891   2.228  0.0000  0.0000  0.0000
  643SOL    HW1 7378   3.292   3.807   2.211  0.0000  0.0000  0.0000
  643SOL    HW2 7379   3.263   3.955   2.226  0.0000  0.0000  0.0000
  643SOL     MW 7380   3.319   3.889   2.225  0.0000  0.0000  0.0000
  644SOL     OW 7381   4.498   5.699   6.350  0.0000  0.0000  0.0000
  644SOL    HW1 7382   4.585   5.740   6.352  0.0000  0.0000  0.0000
  644SOL    HW2 7383   4.465   5.709   6.439  0.0000  0.0000  0.0000
  644SOL     MW 7384   4.505   5.706   6.362  0.0000  0.0000  0.0000
  645SOL     OW 7385   0.092   3.050   5.202  0.0000  0.0000  0.0000
  645SOL    HW1 7386   0.037   3.001   5.141  0.0000  0.0000  0.0000
  645SOL    HW2 7387   0.040   3.128   5.223  0.0000  0.0000  0.0000
  645SOL     MW 7388   0.078   3.054   5.197  0.0000  0.0000  0.0000
  646SOL     OW 7389   0.787   4.610   4.745  0.0000  0.0000  0.0000
  646SOL    HW1 7390   0.832   4.606   4.829  0.0000  0.0000  0.0000
  646SOL    HW2 7391   0.726   4.536   4.747  0.0000  0.0000  0.0000
  646SOL     MW 7392   0.785   4.599   4.756  0.0000  0.0000  0.0000
  647SOL     OW 7393   3.271   4.624   1.655  0.0000  0.0000  0.0000
  647SOL    HW1 7394   3.196   4.669   1.616  0.0000  0.0000  0.0000
  647SOL    HW2 7395   3.338   4.625   1.587  0.0000  0.0000  0.0000
  647SOL     MW 7396   3.270   4.630   1.641  0.0000  0.0000  0.0000
  648SOL     OW 7397   2.904   5.012   2.291  0.0000  0.0000  0.0000
  648SOL    HW1 7398   2.868   5.066   2.221  0.0000  0.0000  0.0000
  648SOL    HW2 7399   2.929   5.075   2.359  0.0000  0.0000  0.0000
  648SOL     MW 7400   2.903   5.028   2.291  0.0000  0.0000  0.0000
  649SOL     OW 7401   0.887   6.267   1.719  0.0000  0.0000  0.0000
  649SOL    HW1 7402   0.972   6.273   1.675  0.0000  0.0000  0.0000
  649SOL    HW2 7403   0.896   6.192   1.777  0.0000  0.0000  0.0000
  649SOL     MW 7404   0.900   6.258   1.721  0.0000  0.0000  0.0000
  650SOL     OW 7405   1.400   5.590   1.746  0.0000  0.0000  0.0000
  650SOL    HW1 7406   1.318   5.557   1.783  0.0000  0.0000  0.0000
  650SOL    HW2 7407   1.374   5.634   1.666  0.0000  0.0000  0.0000
  650SOL     MW 7408   1.386   5.591   1.741  0.0000  0.0000  0.0000
  651SOL     OW 7409   2.369   2.731   6.427  0.0000  0.0000  0.0000
  651SOL    HW1 7410   2.408   2.716   6.340  0.0000  0.0000  0.0000
  651SOL    HW2 7411   2.395   2.820   6.449  0.0000  0.0000  0.0000
  651SOL     MW 7412   2.377   2.741   6.418  0.0000  0.0000  0.0000
  652SOL     OW 7413   4.223   3.485   5.753  0.0000  0.0000  0.0000
  652SOL    HW1 7414   4.204   3.395   5.779  0.0000  0.0000  0.0000
  652SOL    HW2 7415   4.265   3.524   5.830  0.0000  0.0000  0.0000
  652SOL     MW 7416   4.226   3.479   5.766  0.0000  0.0000  0.0000
  653SOL     OW 7417   0.601   2.890   3.743  0.0000  0.0000  0.0000
  653SOL    HW1 7418   0.655   2.941   3.683  0.0000  0.0000  0.0000
  653SOL    HW2 7419   0.620   2.799   3.722  0.0000  0.0000  0.0000
  653SOL     MW 7420   0.611   2.885   3.733  0.0000  0.0000  0.0000
  654SOL     OW 7421   1.218   5.669   6.505  0.0000  0.0000  0.0000
  654SOL    HW1 7422   1.228   5.764   6.502  0.0000  0.0000  0.0000
  654SOL    HW2 7423   1.176   5.646   6.422  0.0000  0.0000  0.0000
  654SOL     MW 7424   1.214   5.678   6.494  0.0000  0.0000  0.0000
  655SOL     OW 7425   2.601   3.439   1.857  0.0000  0.0000  0.0000
  655SOL    HW1 7426   2.565   3.395   1.934  0.0000  0.0000  0.0000
  655SOL    HW2 7427   2.560   3.394   1.782  0.0000  0.0000  0.0000
  655SOL     MW 7428   2.591   3.427   1.857  0.0000  0.0000  0.0000
  656SOL     OW 7429   1.002   3.691   2.406  0.0000  0.0000  0.0000
  656SOL    HW1 7430   1.003   3.700   2.501  0.0000  0.0000  0.0000
  656SOL    HW2 7431   0.955   3.609   2.390  0.0000  0.0000  0.0000
  656SOL     MW 7432   0.996   3.682   2.416  0.0000  0.0000  0.0000
  657SOL     OW 7433   3.731   4.135   1.950  0.0000  0.0000  0.0000
  657SOL    HW1 7434   3.735   4.171   2.039  0.0000  0.0000  0.0000
  657SOL    HW2 7435   3.683   4.052   1.960  0.0000  0.0000  0.0000
  657SOL     MW 7436   3.725   4.128   1.963  0.0000  0.0000  0.0000
  658SOL     OW 7437   2.115   2.635   6.128  0.0000  0.0000  0.0000
  658SOL    HW1 7438   2.131   2.704   6.192  0.0000  0.0000  0.0000
  658SOL    HW2 7439   2.165   2.560   6.160  0.0000  0.0000  0.0000
  658SOL     MW 7440   2.124   2.634   6.140  0.0000  0.0000  0.0000
  659SOL     OW 7441   4.387   6.358   5.681  0.0000  0.0000  0.0000
  659SOL    HW1 7442   4.350   6.443   5.658  0.0000  0.0000  0.0000
  659SOL    HW2 7443   4.481   6.374   5.687  0.0000  0.0000  0.0000
  659SOL     MW 7444   4.395   6.372   5.678  0.0000  0.0000  0.0000
  660SOL     OW 7445   0.181   7.070   3.124  0.0000  0.0000  0.0000
  660SOL    HW1 7446   0.272   7.042   3.117  0.0000  0.0000  0.0000
  660SOL    HW2 7447   0.131   6.988   3.119  0.0000  0.0000  0.0000
  660SOL     MW 7448   0.186   7.055   3.122  0.0000  0.0000  0.0000
  661SOL     OW 7449   1.262   6.766   3.067  0.0000  0.0000  0.0000
  661SOL    HW1 7450   1.262   6.705   3.141  0.0000  0.0000  0.0000
  661SOL    HW2 7451   1.295   6.714   2.994  0.0000  0.0000  0.0000
  661SOL     MW 7452   1.266   6.751   3.067  0.0000  0.0000  0.0000
  662SOL     OW 7453   2.731   7.018   5.129  0.0000  0.0000  0.0000
  662SOL    HW1 7454   2.638   6.997   5.132  0.0000  0.0000  0.0000
  662SOL    HW2 7455   2.757   7.024   5.221  0.0000  0.0000  0.0000
  662SOL     MW 7456   2.722   7.016   5.142  0.0000  0.0000  0.0000
  663SOL     OW 7457   3.458   2.677   3.578  0.0000  0.0000  0.0000
  663SOL    HW1 7458   3.411   2.595   3.560  0.0000  0.0000  0.0000
  663SOL    HW2 7459   3.468   2.679   3.673  0.0000  0.0000  0.0000
  663SOL     MW 7460   3.453   2.666   3.588  0.0000  0.0000  0.0000
  664SOL     OW 7461   2.198   6.770   2.016  0.0000  0.0000  0.0000
  664SOL    HW1 7462   2.257   6.736   1.948  0.0000  0.0000  0.0000
  664SOL    HW2 7463   2.120   6.797   1.969  0.0000  0.0000  0.0000
  664SOL     MW 7464   2.196   6.769   2.001  0.0000  0.0000  0.0000
  665SOL     OW 7465   4.494   6.022   3.013  0.0000  0.0000  0.0000
  665SOL    HW1 7466   4.525   6.113   3.012  0.0000  0.0000  0.0000
  665SOL    HW2 7467   4.456   6.009   2.926  0.0000  0.0000  0.0000
  665SOL     MW 7468   4.493   6.032   3.001  0.0000  0.0000  0.0000
  666SOL     OW 7469   4.106   2.629   3.461  0.0000  0.0000  0.0000
  666SOL    HW1 7470   4.199   2.638   3.483  0.0000  0.0000  0.0000
  666SOL    HW2 7471   4.106   2.594   3.372  0.0000  0.0000  0.0000
  666SOL     MW 7472   4.119   2.625   3.452  0.0000  0.0000  0.0000
  667SOL     OW 7473   0.887   5.797   2.499  0.0000  0.0000  0.0000
  667SOL    HW1 7474   0.954   5.729   2.490  0.0000  0.0000  0.0000
  667SOL    HW2 7475   0.904   5.837   2.584  0.0000  0.0000  0.0000
  667SOL     MW 7476   0.898   5.793   2.509  0.0000  0.0000  0.0000
  668SOL     OW 7477   0.790   6.803   4.360  0.0000  0.0000  0.0000
  668SOL    HW1 7478   0.755   6.811   4.449  0.0000  0.0000  0.0000
  668SOL    HW2 7479   0.757   6.880   4.314  0.0000  0.0000  0.0000
  668SOL     MW 7480   0.781   6.815   4.366  0.0000  0.0000  0.0000
  669SOL     OW 7481   2.072   5.639   3.106  0.0000  0.0000  0.0000
  669SOL    HW1 7482   2.105   5.661   3.193  0.0000  0.0000  0.0000
  669SOL    HW2 7483   2.052   5.723   3.066  0.0000  0.0000  0.0000
  669SOL     MW 7484   2.074   5.653   3.113  0.0000  0.0000  0.0000
  670SOL     OW 7485   0.213   3.220   3.706  0.0000  0.0000  0.0000
  670SOL    HW1 7486   0.291   3.170   3.728  0.0000  0.0000  0.0000
  670SOL    HW2 7487   0.231   3.308   3.740  0.0000  0.0000  0.0000
  670SOL     MW 7488   0.225   3.225   3.713  0.0000  0.0000  0.0000
  671SOL     OW 7489   0.989   6.117   4.176  0.0000  0.0000  0.0000
  671SOL    HW1 7490   1.062   6.143   4.233  0.0000  0.0000  0.0000
  671SOL    HW2 7491   1.031   6.068   4.106  0.0000  0.0000  0.0000
  671SOL     MW 7492   1.005   6.114   4.175  0.0000  0.0000  0.0000
  672SOL     OW 7493   0.062   7.011   2.154  0.0000  0.0000  0.0000
  672SOL    HW1 7494   0.002   6.948   2.193  0.0000  0.0000  0.0000
  672SOL    HW2 7495   0.029   7.026   2.065  0.0000  0.0000  0.0000
  672SOL     MW 7496   0.050   7.005   2.147  0.0000  0.0000  0.0000
  673SOL     OW 7497   1.093   4.463   5.007  0.0000  0.0000  0.0000
  673SOL    HW1 7498   1.155   4.517   4.958  0.0000  0.0000  0.0000
  673SOL    HW2 7499   1.016   4.518   5.018  0.0000  0.0000  0.0000
  673SOL     MW 7500   1.091   4.477   5.002  0.0000  0.0000  0.0000
  674SOL     OW 7501   1.165   6.524   5.192  0.0000  0.0000  0.0000
  674SOL    HW1 7502   1.081   6.540   5.149  0.0000  0.0000  0.0000
  674SOL    HW2 7503   1.198   6.445   5.151  0.0000  0.0000  0.0000
  674SOL     MW 7504   1.158   6.516   5.181  0.0000  0.0000  0.0000
  675SOL     OW 7505   1.502   6.737   4.963  0.0000  0.0000  0.0000
  675SOL    HW1 7506   1.414   6.769   4.981  0.0000  0.0000  0.0000
  675SOL    HW2 7507   1.494   6.690   4.880  0.0000  0.0000  0.0000
  675SOL     MW 7508   1.489   6.735   4.954  0.0000  0.0000  0.0000
  676SOL     OW 7509   1.570   6.368   4.007  0.0000  0.0000  0.0000
  676SOL    HW1 7510   1.484   6.405   4.027  0.0000  0.0000  0.0000
  676SOL    HW2 7511   1.591   6.401   3.920  0.0000  0.0000  0.0000
  676SOL     MW 7512   1.561   6.377   3.998  0.0000  0.0000  0.0000
  677SOL     OW 7513   0.477   5.839   3.303  0.0000  0.0000  0.0000
  677SOL    HW1 7514   0.432   5.888   3.371  0.0000  0.0000  0.0000
  677SOL    HW2 7515   0.491   5.752   3.341  0.0000  0.0000  0.0000
  677SOL     MW 7516   0.473   5.834   3.317  0.0000  0.0000  0.0000
  678SOL     OW 7517   3.208   5.746   5.906  0.0000  0.0000  0.0000
  678SOL    HW1 7518   3.288   5.715   5.863  0.0000  0.0000  0.0000
  678SOL    HW2 7519   3.186   5.677   5.968  0.0000  0.0000  0.0000
  678SOL     MW 7520   3.216   5.733   5.909  0.0000  0.0000  0.0000
  679SOL     OW 7521   0.924   3.630   5.786  0.0000  0.0000  0.0000
  679SOL    HW1 7522   1.010   3.592   5.802  0.0000  0.0000  0.0000
  679SOL    HW2 7523   0.864   3.577   5.839  0.0000  0.0000  0.0000
  679SOL     MW 7524   0.927   3.618   5.795  0.0000  0.0000  0.0000
  680SOL     OW 7525   2.498   3.203   3.944  0.0000  0.0000  0.0000
  680SOL    HW1 7526   2.586   3.240   3.946  0.0000  0.0000  0.0000
  680SOL    HW2 7527   2.440   3.279   3.951  0.0000  0.0000  0.0000
  680SOL     MW 7528   2.502   3.218   3.945  0.0000  0.0000  0.0000
  681SOL     OW 7529   2.417   6.056   2.262  0.0000  0.0000  0.0000
  681SOL    HW1 7530   2.344   6.023   2.315  0.0000  0.0000  0.0000
  681SOL    HW2 7531   2.446   6.134   2.308  0.0000  0.0000  0.0000
  681SOL     MW 7532   2.411   6.062   2.275  0.0000  0.0000  0.0000
  682SOL     OW 7533   0.020   6.236   3.584  0.0000  0.0000  0.0000
  682SOL    HW1 7534   0.057   6.169   3.642  0.0000  0.0000  0.0000
  682SOL    HW2 7535  -0.053   6.192   3.540  0.0000  0.0000  0.0000
  682SOL     MW 7536   0.015   6.221   3.586  0.0000  0.0000  0.0000
  683SOL     OW 7537   2.269   3.828   1.660  0.0000  0.0000  0.0000
  683SOL    HW1 7538   2.216   3.855   1.735  0.0000  0.0000  0.0000
  683SOL    HW2 7539   2.265   3.903   1.600  0.0000  0.0000  0.0000
  683SOL     MW 7540   2.261   3.842   1.662  0.0000  0.0000  0.0000
  684SOL     OW 7541   0.532   3.669   1.942  0.0000  0.0000  0.0000
  684SOL    HW1 7542   0.468   3.699   2.006  0.0000  0.0000  0.0000
  684SOL    HW2 7543   0.491   3.687   1.857  0.0000  0.0000  0.0000
  684SOL     MW 7544   0.518   3.676   1.939  0.0000  0.0000  0.0000
  685SOL     OW 7545   2.981   4.848   5.288  0.0000  0.0000  0.0000
  685SOL    HW1 7546   2.969   4.928   5.238  0.0000  0.0000  0.0000
  685SOL    HW2 7547   2.964   4.778   5.225  0.0000  0.0000  0.0000
  685SOL     MW 7548   2.977   4.849   5.273  0.0000  0.0000  0.0000
  686SOL     OW 7549   1.316   2.975   1.555  0.0000  0.0000  0.0000
  686SOL    HW1 7550   1.270   2.892   1.545  0.0000  0.0000  0.0000
  686SOL    HW2 7551   1.251   3.042   1.534  0.0000  0.0000  0.0000
  686SOL     MW 7552   1.302   2.973   1.551  0.0000  0.0000  0.0000
  687SOL     OW 7553   1.353   3.280   2.185  0.0000  0.0000  0.0000
  687SOL    HW1 7554   1.288   3.220   2.220  0.0000  0.0000  0.0000
  687SOL    HW2 7555   1.411   3.299   2.259  0.0000  0.0000  0.0000
  687SOL     MW 7556   1.352   3.274   2.199  0.0000  0.0000  0.0000
  688SOL     OW 7557   1.167   5.362   1.617  0.0000  0.0000  0.0000
  688SOL    HW1 7558   1.108   5.287   1.624  0.0000  0.0000  0.0000
  688SOL    HW2 7559   1.174   5.396   1.706  0.0000  0.0000  0.0000
  688SOL     MW 7560   1.160   5.357   1.630  0.0000  0.0000  0.0000
  689SOL     OW 7561   1.457   3.867   2.064  0.0000  0.0000  0.0000
  689SOL    HW1 7562   1.362   3.871   2.054  0.0000  0.0000  0.0000
  689SOL    HW2 7563   1.482   3.783   2.026  0.0000  0.0000  0.0000
  689SOL     MW 7564   1.448   3.857   2.058  0.0000  0.0000  0.0000
  690SOL     OW 7565   1.289   3.523   2.105  0.0000  0.0000  0.0000
  690SOL    HW1 7566   1.237   3.564   2.174  0.0000  0.0000  0.0000
  690SOL    HW2 7567   1.304   3.434   2.136  0.0000  0.0000  0.0000
  690SOL     MW 7568   1.284   3.517   2.118  0.0000  0.0000  0.0000
  691SOL     OW 7569   1.004   3.391   1.606  0.0000  0.0000  0.0000
  691SOL    HW1 7570   1.080   3.366   1.658  0.0000  0.0000  0.0000
  691SOL    HW2 7571   0.933   3.402   1.670  0.0000  0.0000  0.0000
  691SOL     MW 7572   1.004   3.389   1.622  0.0000  0.0000  0.0000
  692SOL     OW 7573   2.320   3.125   6.263  0.0000  0.0000  0.0000
  692SOL    HW1 7574   2.359   3.178   6.334  0.0000  0.0000  0.0000
  692SOL    HW2 7575   2.395   3.082   6.223  0.0000  0.0000  0.0000
  692SOL     MW 7576   2.335   3.127   6.267  0.0000  0.0000  0.0000
  693SOL     OW 7577   0.148   6.521   6.222  0.0000  0.0000  0.0000
  693SOL    HW1 7578   0.088   6.585   6.260  0.0000  0.0000  0.0000
  693SOL    HW2 7579   0.171   6.463   6.295  0.0000  0.0000  0.0000
  693SOL     MW 7580   0.143   6.522   6.237  0.0000  0.0000  0.0000
  694SOL     OW 7581   2.481   6.825   2.030  0.0000  0.0000  0.0000
  694SOL    HW1 7582   2.483   6.766   2.105  0.0000  0.0000  0.0000
  694SOL    HW2 7583   2.436   6.775   1.962  0.0000  0.0000  0.0000
  694SOL     MW 7584   2.476   6.811   2.031  0.0000  0.0000  0.0000
  695SOL     OW 7585   1.232   6.514   1.720  0.0000  0.0000  0.0000
  695SOL    HW1 7586   1.247   6.542   1.630  0.0000  0.0000  0.0000
  695SOL    HW2 7587   1.179   6.583   1.758  0.0000  0.0000  0.0000
  695SOL     MW 7588   1.227   6.527   1.713  0.0000  0.0000  0.0000
  696SOL     OW 7589   4.487   3.145   3.147  0.0000  0.0000  0.0000
  696SOL    HW1 7590   4.483   3.050   3.149  0.0000  0.0000  0.0000
  696SOL    HW2 7591   4.395   3.173   3.140  0.0000  0.0000  0.0000
  696SOL     MW 7592   4.474   3.136   3.146  0.0000  0.0000  0.0000
  697SOL     OW 7593   0.962   2.871   3.743  0.0000  0.0000  0.0000
  697SOL    HW1 7594   0.906   2.851   3.818  0.0000  0.0000  0.0000
  697SOL    HW2 7595   1.019   2.794   3.734  0.0000  0.0000  0.0000
  697SOL     MW 7596   0.962   2.858   3.752  0.0000  0.0000  0.0000
  698SOL     OW 7597   0.803   6.738   6.252  0.0000  0.0000  0.0000
  698SOL    HW1 7598   0.890   6.700   6.245  0.0000  0.0000  0.0000
  698SOL    HW2 7599   0.801   6.779   6.339  0.0000  0.0000  0.0000
  698SOL     MW 7600   0.814   6.738   6.263  0.0000  0.0000  0.0000
  699SOL     OW 7601   3.205   4.250   3.512  0.0000  0.0000  0.0000
  699SOL    HW1 7602   3.263   4.322   3.487  0.0000  0.0000  0.0000
  699SOL    HW2 7603   3.178   4.270   3.601  0.0000  0.0000  0.0000
  699SOL     MW 7604   3.209   4.262   3.520  0.0000  0.0000  0.0000
  700SOL     OW 7605   4.194   4.748   2.401  0.0000  0.0000  0.0000
  700SOL    HW1 7606   4.158   4.735   2.313  0.0000  0.0000  0.0000
  700SOL    HW2 7607   4.119   4.777   2.453  0.0000  0.0000  0.0000
  700SOL     MW 7608   4.179   4.750   2.396  0.0000  0.0000  0.0000
  701SOL     OW 7609   0.618   5.591   6.167  0.0000  0.0000  0.0000
  701SOL    HW1 7610   0.705   5.581   6.128  0.0000  0.0000  0.0000
  701SOL    HW2 7611   0.627   5.666   6.226  0.0000  0.0000  0.0000
  701SOL     MW 7612   0.631   5.600   6.169  0.0000  0.0000  0.0000
  702SOL     OW 7613   1.925   6.980   6.103  0.0000  0.0000  0.0000
  702SOL    HW1 7614   1.982   7.015   6.172  0.0000  0.0000  0.0000
  702SOL    HW2 7615   1.877   6.909   6.146  0.0000  0.0000  0.0000
  702SOL     MW 7616   1.926   6.975   6.118  0.0000  0.0000  0.0000
  703SOL     OW 7617   2.073   7.016   6.481  0.0000  0.0000  0.0000
  703SOL    HW1 7618   2.090   7.109   6.498  0.0000  0.0000  0.0000
  703SOL    HW2 7619   1.981   7.013   6.454  0.0000  0.0000  0.0000
  703SOL     MW 7620   2.063   7.028   6.479  0.0000  0.0000  0.0000
  704SOL     OW 7621   4.647   5.947   6.067  0.0000  0.0000  0.0000
  704SOL    HW1 7622   4.688   6.011   6.125  0.0000  0.0000  0.0000
  704SOL    HW2 7623   4.557   5.977   6.057  0.0000  0.0000  0.0000
  704SOL     MW 7624   4.641   5.959   6.073  0.0000  0.0000  0.0000
  705SOL     OW 7625   3.120   4.054   2.182  0.0000  0.0000  0.0000
  705SOL    HW1 7626   3.081   4.122   2.238  0.0000  0.0000  0.0000
  705SOL    HW2 7627   3.106   4.087   2.093  0.0000  0.0000  0.0000
  705SOL     MW 7628   3.113   4.068   2.178  0.0000  0.0000  0.0000
  706SOL     OW 7629   2.272   6.150   6.354  0.0000  0.0000  0.0000
  706SOL    HW1 7630   2.313   6.139   6.269  0.0000  0.0000  0.0000
  706SOL    HW2 7631   2.180   6.131   6.339  0.0000  0.0000  0.0000
  706SOL     MW 7632   2.265   6.146   6.341  0.0000  0.0000  0.0000
  707SOL     OW 7633   0.140   3.656   5.899  0.0000  0.0000  0.0000
  707SOL    HW1 7634   0.152   3.584   5.960  0.0000  0.0000  0.0000
  707SOL    HW2 7635   0.229   3.684   5.877  0.0000  0.0000  0.0000
  707SOL     MW 7636   0.153   3.650   5.904  0.0000  0.0000  0.0000
  708SOL     OW 7637   0.853   5.998   5.516  0.0000  0.0000  0.0000
  708SOL    HW1 7638   0.766   5.960   5.506  0.0000  0.0000  0.0000
  708SOL    HW2 7639   0.913   5.926   5.501  0.0000  0.0000  0.0000
  708SOL     MW 7640   0.849   5.984   5.513  0.0000  0.0000  0.0000
  709SOL     OW 7641   4.158   3.007   2.275  0.0000  0.0000  0.0000
  709SOL    HW1 7642   4.072   3.018   2.314  0.0000  0.0000  0.0000
  709SOL    HW2 7643   4.207   3.085   2.302  0.0000  0.0000  0.0000
  709SOL     MW 7644   4.153   3.019   2.284  0.0000  0.0000  0.0000
  710SOL     OW 7645   3.208   4.418   1.851  0.0000  0.0000  0.0000
  710SOL    HW1 7646   3.221   4.488   1.788  0.0000  0.0000  0.0000
  710SOL    HW2 7647   3.295   4.401   1.887  0.0000  0.0000  0.0000
  710SOL     MW 7648   3.222   4.425   1.847  0.0000  0.0000  0.0000
  711SOL     OW 7649   3.375   2.644   6.443  0.0000  0.0000  0.0000
  711SOL    HW1 7650   3.354   2.596   6.523  0.0000  0.0000  0.0000
  711SOL    HW2 7651   3.296   2.636   6.390  0.0000  0.0000  0.0000
  711SOL     MW 7652   3.361   2.637   6.447  0.0000  0.0000  0.0000
  712SOL     OW 7653   1.842   6.458   5.439  0.0000  0.0000  0.0000
  712SOL    HW1 7654   1.879   6.406   5.511  0.0000  0.0000  0.0000
  712SOL    HW2 7655   1.908   6.453   5.370  0.0000  0.0000  0.0000
  712SOL     MW 7656   1.856   6.450   5.440  0.0000  0.0000  0.0000
  713SOL     OW 7657   1.195   6.600   3.778  0.0000  0.0000  0.0000
  713SOL    HW1 7658   1.273   6.643   3.742  0.0000  0.0000  0.0000
  713SOL    HW2 7659   1.169   6.656   3.851  0.0000  0.0000  0.0000
  713SOL     MW 7660   1.201   6.613   3.783  0.0000  0.0000  0.0000
  714SOL     OW 7661   2.257   5.071   6.006  0.0000  0.0000  0.0000
  714SOL    HW1 7662   2.162   5.076   5.996  0.0000  0.0000  0.0000
  714SOL    HW2 7663   2.277   5.132   6.077  0.0000  0.0000  0.0000
  714SOL     MW 7664   2.247   5.080   6.014  0.0000  0.0000  0.0000
  715SOL     OW 7665   0.050   2.747   2.552  0.0000  0.0000  0.0000
  715SOL    HW1 7666   0.027   2.821   2.609  0.0000  0.0000  0.0000
  715SOL    HW2 7667   0.028   2.777   2.464  0.0000  0.0000  0.0000
  715SOL     MW 7668   0.045   2.761   2.548  0.0000  0.0000  0.0000
  716SOL     OW 7669   3.198   6.159   2.851  0.0000  0.0000  0.0000
  716SOL    HW1 7670   3.124   6.192   2.801  0.0000  0.0000  0.0000
  716SOL    HW2 7671   3.199   6.065   2.833  0.0000  0.0000  0.0000
  716SOL     MW 7672   3.188   6.151   2.842  0.0000  0.0000  0.0000
  717SOL     OW 7673   1.911   6.581   3.946  0.0000  0.0000  0.0000
  717SOL    HW1 7674   1.989   6.628   3.977  0.0000  0.0000  0.0000
  717SOL    HW2 7675   1.940   6.538   3.866  0.0000  0.0000  0.0000
  717SOL     MW 7676   1.925   6.582   3.940  0.0000  0.0000  0.0000
  718SOL     OW 7677   3.103   5.044   1.767  0.0000  0.0000  0.0000
  718SOL    HW1 7678   3.063   4.962   1.735  0.0000  0.0000  0.0000
  718SOL    HW2 7679   3.120   5.027   1.860  0.0000  0.0000  0.0000
  718SOL     MW 7680   3.100   5.031   1.775  0.0000  0.0000  0.0000
  719SOL     OW 7681   3.228   6.293   1.736  0.0000  0.0000  0.0000
  719SOL    HW1 7682   3.295   6.243   1.690  0.0000  0.0000  0.0000
  719SOL    HW2 7683   3.174   6.226   1.779  0.0000  0.0000  0.0000
  719SOL     MW 7684   3.230   6.277   1.736  0.0000  0.0000  0.0000
  720SOL     OW 7685   0.634   4.523   1.592  0.0000  0.0000  0.0000
  720SOL    HW1 7686   0.632   4.473   1.673  0.0000  0.0000  0.0000
  720SOL    HW2 7687   0.646   4.457   1.523  0.0000  0.0000  0.0000
  720SOL     MW 7688   0.635   4.508   1.593  0.0000  0.0000  0.0000
  721SOL     OW 7689   3.429   4.424   3.527  0.0000  0.0000  0.0000
  721SOL    HW1 7690   3.501   4.361   3.529  0.0000  0.0000  0.0000
  721SOL    HW2 7691   3.454   4.490   3.592  0.0000  0.0000  0.0000
  721SOL     MW 7692   3.442   4.424   3.536  0.0000  0.0000  0.0000
  722SOL     OW 7693   2.063   3.515   5.704  0.0000  0.0000  0.0000
  722SOL    HW1 7694   2.137   3.568   5.677  0.0000  0.0000  0.0000
  722SOL    HW2 7695   2.097   3.425   5.708  0.0000  0.0000  0.0000
  722SOL     MW 7696   2.077   3.510   5.701  0.0000  0.0000  0.0000
  723SOL     OW 7697   1.337   3.984   6.330  0.0000  0.0000  0.0000
  723SOL    HW1 7698   1.282   4.054   6.362  0.0000  0.0000  0.0000
  723SOL    HW2 7699   1.279   3.930   6.276  0.0000  0.0000  0.0000
  723SOL     MW 7700   1.322   3.986   6.327  0.0000  0.0000  0.0000
  724SOL     OW 7701   2.430   4.339   2.735  0.0000  0.0000  0.0000
  724SOL    HW1 7702   2.411   4.418   2.684  0.0000  0.0000  0.0000
  724SOL    HW2 7703   2.427   4.368   2.826  0.0000  0.0000  0.0000
  724SOL     MW 7704   2.427   4.353   2.740  0.0000  0.0000  0.0000
  725SOL     OW 7705   3.033   6.144   2.142  0.0000  0.0000  0.0000
  725SOL    HW1 7706   3.108   6.104   2.186  0.0000  0.0000  0.0000
  725SOL    HW2 7707   2.957   6.098   2.177  0.0000  0.0000  0.0000
  725SOL     MW 7708   3.033   6.132   2.152  0.0000  0.0000  0.0000
  726SOL     OW 7709   2.324   4.174   1.543  0.0000  0.0000  0.0000
  726SOL    HW1 7710   2.287   4.216   1.621  0.0000  0.0000  0.0000
  726SOL    HW2 7711   2.418   4.170   1.560  0.0000  0.0000  0.0000
  726SOL     MW 7712   2.331   4.179   1.555  0.0000  0.0000  0.0000
  727SOL     OW 7713   1.506   5.710   1.977  0.0000  0.0000  0.0000
  727SOL    HW1 7714   1.468   5.667   1.900  0.0000  0.0000  0.0000
  727SOL    HW2 7715   1.468   5.663   2.051  0.0000  0.0000  0.0000
  727SOL     MW 7716   1.496   5.698   1.977  0.0000  0.0000  0.0000
  728SOL     OW 7717   0.243   6.640   3.665  0.0000  0.0000  0.0000
  728SOL    HW1 7718   0.227   6.597   3.581  0.0000  0.0000  0.0000
  728SOL    HW2 7719   0.167   6.618   3.718  0.0000  0.0000  0.0000
  728SOL     MW 7720   0.231   6.632   3.661  0.0000  0.0000  0.0000
  729SOL     OW 7721   0.581   3.192   5.924  0.0000  0.0000  0.0000
  729SOL    HW1 7722   0.676   3.194   5.915  0.0000  0.0000  0.0000
  729SOL    HW2 7723   0.558   3.099   5.923  0.0000  0.0000  0.0000
  729SOL     MW 7724   0.591   3.180   5.923  0.0000  0.0000  0.0000
  730SOL     OW 7725   0.026   3.406   1.759  0.0000  0.0000  0.0000
  730SOL    HW1 7726  -0.058   3.445   1.735  0.0000  0.0000  0.0000
  730SOL    HW2 7727   0.060   3.464   1.828  0.0000  0.0000  0.0000
  730SOL     MW 7728   0.019   3.419   1.765  0.0000  0.0000  0.0000
  731SOL     OW 7729   0.547   4.763   1.841  0.0000  0.0000  0.0000
  731SOL    HW1 7730   0.483   4.742   1.908  0.0000  0.0000  0.0000
  731SOL    HW2 7731   0.630   4.729   1.875  0.0000  0.0000  0.0000
  731SOL     MW 7732   0.550   4.756   1.854  0.0000  0.0000  0.0000
  732SOL     OW 7733   2.187   4.330   1.767  0.0000  0.0000  0.0000
  732SOL    HW1 7734   2.262   4.379   1.799  0.0000  0.0000  0.0000
  732SOL    HW2 7735   2.119   4.397   1.752  0.0000  0.0000  0.0000
  732SOL     MW 7736   2.188   4.345   1.769  0.0000  0.0000  0.0000
  733SOL     OW 7737   0.598   2.669   6.376  0.0000  0.0000  0.0000
  733SOL    HW1 7738   0.618   2.695   6.466  0.0000  0.0000  0.0000
  733SOL    HW2 7739   0.554   2.746   6.338  0.0000  0.0000  0.0000
  733SOL     MW 7740   0.595   2.683   6.383  0.0000  0.0000  0.0000
  734SOL     OW 7741   4.336   6.195   6.332  0.0000  0.0000  0.0000
  734SOL    HW1 7742   4.321   6.122   6.272  0.0000  0.0000  0.0000
  734SOL    HW2 7743   4.422   6.230   6.306  0.0000  0.0000  0.0000
  734SOL     MW 7744   4.345   6.190   6.321  0.0000  0.0000  0.0000
  735SOL     OW 7745   3.387   3.300   2.151  0.0000  0.0000  0.0000
  735SOL    HW1 7746   3.425   3.387   2.163  0.0000  0.0000  0.0000
  735SOL    HW2 7747   3.310   3.299   2.208  0.0000  0.0000  0.0000
  735SOL     MW 7748   3.382   3.311   2.160  0.0000  0.0000  0.0000
  736SOL     OW 7749   0.693   6.321   5.737  0.0000  0.0000  0.0000
  736SOL    HW1 7750   0.718   6.240   5.781  0.0000  0.0000  0.0000
  736SOL    HW2 7751   0.703   6.302   5.643  0.0000  0.0000  0.0000
  736SOL     MW 7752   0.698   6.308   5.730  0.0000  0.0000  0.0000
  737SOL     OW 7753   2.604   2.798   3.938  0.0000  0.0000  0.0000
  737SOL    HW1 7754   2.616   2.709   3.905  0.0000  0.0000  0.0000
  737SOL    HW2 7755   2.690   2.822   3.973  0.0000  0.0000  0.0000
  737SOL     MW 7756   2.617   2.789   3.938  0.0000  0.0000  0.0000
  738SOL     OW 7757   1.763   6.189   1.835  0.0000  0.0000  0.0000
  738SOL    HW1 7758   1.820   6.206   1.910  0.0000  0.0000  0.0000
  738SOL    HW2 7759   1.759   6.273   1.789  0.0000  0.0000  0.0000
  738SOL     MW 7760   1.770   6.202   1.839  0.0000  0.0000  0.0000
  739SOL     OW 7761   3.040   5.529   6.042  0.0000  0.0000  0.0000
  739SOL    HW1 7762   2.972   5.560   6.102  0.0000  0.0000  0.0000
  739SOL    HW2 7763   3.078   5.453   6.087  0.0000  0.0000  0.0000
  739SOL     MW 7764   3.036   5.523   6.056  0.0000  0.0000  0.0000
  740SOL     OW 7765   2.439   2.967   3.825  0.0000  0.0000  0.0000
  740SOL    HW1 7766   2.491   2.903   3.873  0.0000  0.0000  0.0000
  740SOL    HW2 7767   2.446   3.047   3.876  0.0000  0.0000  0.0000
  740SOL     MW 7768   2.447   2.969   3.838  0.0000  0.0000  0.0000
  741SOL     OW 7769   2.255   2.814   3.716  0.0000  0.0000  0.0000
  741SOL    HW1 7770   2.327   2.873   3.736  0.0000  0.0000  0.0000
  741SOL    HW2 7771   2.208   2.856   3.644  0.0000  0.0000  0.0000
  741SOL     MW 7772   2.258   2.827   3.710  0.0000  0.0000  0.0000
  742SOL     OW 7773   3.363   6.674   5.817  0.0000  0.0000  0.0000
  742SOL    HW1 7774   3.381   6.661   5.910  0.0000  0.0000  0.0000
  742SOL    HW2 7775   3.334   6.588   5.786  0.0000  0.0000  0.0000
  742SOL     MW 7776   3.361   6.661   5.825  0.0000  0.0000  0.0000
  743SOL     OW 7777   3.134   3.987   3.030  0.0000  0.0000  0.0000
  743SOL    HW1 7778   3.131   4.043   3.108  0.0000  0.0000  0.0000
  743SOL    HW2 7779   3.123   4.048   2.957  0.0000  0.0000  0.0000
  743SOL     MW 7780   3.132   4.002   3.031  0.0000  0.0000  0.0000
  744SOL     OW 7781   2.707   5.449   1.873  0.0000  0.0000  0.0000
  744SOL    HW1 7782   2.634   5.388   1.865  0.0000  0.0000  0.0000
  744SOL    HW2 7783   2.670   5.526   1.914  0.0000  0.0000  0.0000
  744SOL     MW 7784   2.692   5.451   1.877  0.0000  0.0000  0.0000
  745SOL     OW 7785   2.826   4.445   5.334  0.0000  0.0000  0.0000
  745SOL    HW1 7786   2.746   4.396   5.319  0.0000  0.0000  0.0000
  745SOL    HW2 7787   2.890   4.379   5.361  0.0000  0.0000  0.0000
  745SOL     MW 7788   2.824   4.430   5.335  0.0000  0.0000  0.0000
  746SOL     OW 7789   2.433   3.124   4.210  0.0000  0.0000  0.0000
  746SOL    HW1 7790   2.340   3.141   4.194  0.0000  0.0000  0.0000
  746SOL    HW2 7791   2.472   3.118   4.123  0.0000  0.0000  0.0000
  746SOL     MW 7792   2.426   3.125   4.197  0.0000  0.0000  0.0000
  747SOL     OW 7793   3.103   2.807   4.192  0.0000  0.0000  0.0000
  747SOL    HW1 7794   3.149   2.723   4.191  0.0000  0.0000  0.0000
  747SOL    HW2 7795   3.172   2.873   4.199  0.0000  0.0000  0.0000
  747SOL     MW 7796   3.118   2.804   4.193  0.0000  0.0000  0.0000
  748SOL     OW 7797   2.716   3.933   4.213  0.0000  0.0000  0.0000
  748SOL    HW1 7798   2.654   4.005   4.214  0.0000  0.0000  0.0000
  748SOL    HW2 7799   2.674   3.864   4.264  0.0000  0.0000  0.0000
  748SOL     MW 7800   2.702   3.933   4.220  0.0000  0.0000  0.0000
  749SOL     OW 7801   2.561   3.085   3.568  0.0000  0.0000  0.0000
  749SOL    HW1 7802   2.504   3.161   3.561  0.0000  0.0000  0.0000
  749SOL    HW2 7803   2.537   3.045   3.652  0.0000  0.0000  0.0000
  749SOL     MW 7804   2.550   3.089   3.578  0.0000  0.0000  0.0000
  750SOL     OW 7805   2.345   3.148   2.556  0.0000  0.0000  0.0000
  750SOL    HW1 7806   2.430   3.113   2.579  0.0000  0.0000  0.0000
  750SOL    HW2 7807   2.360   3.240   2.538  0.0000  0.0000  0.0000
  750SOL     MW 7808   2.358   3.155   2.557  0.0000  0.0000  0.0000
  751SOL     OW 7809   2.186   3.168   3.158  0.0000  0.0000  0.0000
  751SOL    HW1 7810   2.210   3.087   3.203  0.0000  0.0000  0.0000
  751SOL    HW2 7811   2.268   3.216   3.151  0.0000  0.0000  0.0000
  751SOL     MW 7812   2.200   3.163   3.163  0.0000  0.0000  0.0000
  752SOL     OW 7813   3.600   3.608   4.154  0.0000  0.0000  0.0000
  752SOL    HW1 7814   3.570   3.578   4.240  0.0000  0.0000  0.0000
  752SOL    HW2 7815   3.521   3.637   4.109  0.0000  0.0000  0.0000
  752SOL     MW 7816   3.586   3.608   4.159  0.0000  0.0000  0.0000
  753SOL     OW 7817   3.590   3.340   4.043  0.0000  0.0000  0.0000
  753SOL    HW1 7818   3.588   3.426   4.086  0.0000  0.0000  0.0000
  753SOL    HW2 7819   3.682   3.315   4.043  0.0000  0.0000  0.0000
  753SOL     MW 7820   3.602   3.348   4.049  0.0000  0.0000  0.0000
  754SOL     OW 7821   0.700   4.320   3.631  0.0000  0.0000  0.0000
  754SOL    HW1 7822   0.720   4.391   3.692  0.0000  0.0000  0.0000
  754SOL    HW2 7823   0.620   4.280   3.666  0.0000  0.0000  0.0000
  754SOL     MW 7824   0.692   4.324   3.644  0.0000  0.0000  0.0000
  755SOL     OW 7825   3.289   3.275   3.309  0.0000  0.0000  0.0000
  755SOL    HW1 7826   3.347   3.263   3.384  0.0000  0.0000  0.0000
  755SOL    HW2 7827   3.308   3.200   3.252  0.0000  0.0000  0.0000
  755SOL     MW 7828   3.299   3.264   3.311  0.0000  0.0000  0.0000
  756SOL     OW 7829   3.077   3.394   4.457  0.0000  0.0000  0.0000
  756SOL    HW1 7830   3.001   3.343   4.485  0.0000  0.0000  0.0000
  756SOL    HW2 7831   3.049   3.485   4.460  0.0000  0.0000  0.0000
  756SOL     MW 7832   3.064   3.399   4.461  0.0000  0.0000  0.0000
  757SOL     OW 7833   0.913   4.272   2.040  0.0000  0.0000  0.0000
  757SOL    HW1 7834   0.838   4.309   2.087  0.0000  0.0000  0.0000
  757SOL    HW2 7835   0.878   4.246   1.955  0.0000  0.0000  0.0000
  757SOL     MW 7836   0.898   4.274   2.035  0.0000  0.0000  0.0000
  758SOL     OW 7837   3.662   3.890   4.207  0.0000  0.0000  0.0000
  758SOL    HW1 7838   3.727   3.905   4.139  0.0000  0.0000  0.0000
  758SOL    HW2 7839   3.639   3.798   4.198  0.0000  0.0000  0.0000
  758SOL     MW 7840   3.667   3.880   4.197  0.0000  0.0000  0.0000
  759SOL     OW 7841   2.832   3.088   3.627  0.0000  0.0000  0.0000
  759SOL    HW1 7842   2.739   3.089   3.606  0.0000  0.0000  0.0000
  759SOL    HW2 7843   2.872   3.038   3.556  0.0000  0.0000  0.0000
  759SOL     MW 7844   2.825   3.082   3.615  0.0000  0.0000  0.0000
  760SOL     OW 7845   3.715   3.816   1.657  0.0000  0.0000  0.0000
  760SOL    HW1 7846   3.630   3.803   1.700  0.0000  0.0000  0.0000
  760SOL    HW2 7847   3.712   3.760   1.580  0.0000  0.0000  0.0000
  760SOL     MW 7848   3.703   3.807   1.653  0.0000  0.0000  0.0000
  761SOL     OW 7849   3.307   4.456   5.926  0.0000  0.0000  0.0000
  761SOL    HW1 7850   3.311   4.436   6.019  0.0000  0.0000  0.0000
  761SOL    HW2 7851   3.345   4.544   5.918  0.0000  0.0000  0.0000
  761SOL     MW 7852   3.313   4.465   5.937  0.0000  0.0000  0.0000
  762SOL     OW 7853   2.839   2.827   4.088  0.0000  0.0000  0.0000
  762SOL    HW1 7854   2.872   2.893   4.027  0.0000  0.0000  0.0000
  762SOL    HW2 7855   2.916   2.799   4.137  0.0000  0.0000  0.0000
  762SOL     MW 7856   2.853   2.832   4.087  0.0000  0.0000  0.0000
  763SOL     OW 7857   0.229   5.425   1.750  0.0000  0.0000  0.0000
  763SOL    HW1 7858   0.231   5.517   1.722  0.0000  0.0000  0.0000
  763SOL    HW2 7859   0.321   5.399   1.755  0.0000  0.0000  0.0000
  763SOL     MW 7860   0.242   5.434   1.747  0.0000  0.0000  0.0000
  764SOL     OW 7861   3.501   4.087   5.220  0.0000  0.0000  0.0000
  764SOL    HW1 7862   3.411   4.086   5.186  0.0000  0.0000  0.0000
  764SOL    HW2 7863   3.551   4.133   5.153  0.0000  0.0000  0.0000
  764SOL     MW 7864   3.495   4.093   5.207  0.0000  0.0000  0.0000
  765SOL     OW 7865   2.436   5.485   5.823  0.0000  0.0000  0.0000
  765SOL    HW1 7866   2.376   5.413   5.802  0.0000  0.0000  0.0000
  765SOL    HW2 7867   2.400   5.524   5.902  0.0000  0.0000  0.0000
  765SOL     MW 7868   2.424   5.480   5.830  0.0000  0.0000  0.0000
  766SOL     OW 7869   4.103   4.306   1.970  0.0000  0.0000  0.0000
  766SOL    HW1 7870   4.163   4.353   2.027  0.0000  0.0000  0.0000
  766SOL    HW2 7871   4.148   4.301   1.885  0.0000  0.0000  0.0000
  766SOL     MW 7872   4.117   4.311   1.966  0.0000  0.0000  0.0000
  767SOL     OW 7873   2.082   4.725   6.342  0.0000  0.0000  0.0000
  767SOL    HW1 7874   2.007   4.781   6.326  0.0000  0.0000  0.0000
  767SOL    HW2 7875   2.150   4.757   6.283  0.0000  0.0000  0.0000
  767SOL     MW 7876   2.081   4.736   6.332  0.0000  0.0000  0.0000
  768SOL     OW 7877   1.777   3.695   1.948  0.0000  0.0000  0.0000
  768SOL    HW1 7878   1.814   3.696   1.860  0.0000  0.0000  0.0000
  768SOL    HW2 7879   1.691   3.655   1.938  0.0000  0.0000  0.0000
  768SOL     MW 7880   1.770   3.690   1.935  0.0000  0.0000  0.0000
  769SOL     OW 7881   1.775   6.664   6.433  0.0000  0.0000  0.0000
  769SOL    HW1 7882   1.680   6.662   6.446  0.0000  0.0000  0.0000
  769SOL    HW2 7883   1.811   6.679   6.520  0.0000  0.0000  0.0000
  769SOL     MW 7884   1.767   6.666   6.446  0.0000  0.0000  0.0000
  770SOL     OW 7885   0.849   5.092   1.952  0.0000  0.0000  0.0000
  770SOL    HW1 7886   0.781   5.029   1.978  0.0000  0.0000  0.0000
  770SOL    HW2 7887   0.886   5.122   2.035  0.0000  0.0000  0.0000
  770SOL     MW 7888   0.844   5.087   1.966  0.0000  0.0000  0.0000
  771SOL     OW 7889   4.458   2.683   1.545  0.0000  0.0000  0.0000
  771SOL    HW1 7890   4.440   2.602   1.593  0.0000  0.0000  0.0000
  771SOL    HW2 7891   4.507   2.737   1.607  0.0000  0.0000  0.0000
  771SOL     MW 7892   4.462   2.680   1.559  0.0000  0.0000  0.0000
  772SOL     OW 7893   4.585   6.036   5.707  0.0000  0.0000  0.0000
  772SOL    HW1 7894   4.503   6.067   5.745  0.0000  0.0000  0.0000
  772SOL    HW2 7895   4.642   6.113   5.708  0.0000  0.0000  0.0000
  772SOL     MW 7896   4.582   6.051   5.712  0.0000  0.0000  0.0000
  773SOL     OW 7897   0.801   2.830   2.227  0.0000  0.0000  0.0000
  773SOL    HW1 7898   0.751   2.860   2.151  0.0000  0.0000  0.0000
  773SOL    HW2 7899   0.759   2.748   2.252  0.0000  0.0000  0.0000
  773SOL     MW 7900   0.789   2.823   2.220  0.0000  0.0000  0.0000
  774SOL     OW 7901   3.128   3.104   5.517  0.0000  0.0000  0.0000
  774SOL    HW1 7902   3.039   3.070   5.527  0.0000  0.0000  0.0000
  774SOL    HW2 7903   3.121   3.168   5.445  0.0000  0.0000  0.0000
  774SOL     MW 7904   3.115   3.108   5.509  0.0000  0.0000  0.0000
  775SOL     OW 7905   2.842   4.250   1.881  0.0000  0.0000  0.0000
  775SOL    HW1 7906   2.922   4.215   1.843  0.0000  0.0000  0.0000
  775SOL    HW2 7907   2.797   4.173   1.917  0.0000  0.0000  0.0000
  775SOL     MW 7908   2.846   4.235   1.881  0.0000  0.0000  0.0000
  776SOL     OW 7909   4.410   7.114   2.198  0.0000  0.0000  0.0000
  776SOL    HW1 7910   4.416   7.019   2.214  0.0000  0.0000  0.0000
  776SOL    HW2 7911   4.331   7.125   2.146  0.0000  0.0000  0.0000
  776SOL     MW 7912   4.401   7.103   2.194  0.0000  0.0000  0.0000
  777SOL     OW 7913   1.529   4.358   1.724  0.0000  0.0000  0.0000
  777SOL    HW1 7914   1.487   4.286   1.677  0.0000  0.0000  0.0000
  777SOL    HW2 7915   1.615   4.326   1.747  0.0000  0.0000  0.0000
  777SOL     MW 7916   1.535   4.345   1.721  0.0000  0.0000  0.0000
  778SOL     OW 7917   0.685   2.855   1.982  0.0000  0.0000  0.0000
  778SOL    HW1 7918   0.692   2.914   1.907  0.0000  0.0000  0.0000
  778SOL    HW2 7919   0.661   2.770   1.944  0.0000  0.0000  0.0000
  778SOL     MW 7920   0.682   2.852   1.967  0.0000  0.0000  0.0000
  779SOL     OW 7921   3.108   5.543   2.811  0.0000  0.0000  0.0000
  779SOL    HW1 7922   3.188   5.596   2.809  0.0000  0.0000  0.0000
  779SOL    HW2 7923   3.125   5.477   2.878  0.0000  0.0000  0.0000
  779SOL     MW 7924   3.121   5.541   2.819  0.0000  0.0000  0.0000
  780SOL     OW 7925   1.085   2.800   2.231  0.0000  0.0000  0.0000
  780SOL    HW1 7926   1.130   2.783   2.148  0.0000  0.0000  0.0000
  780SOL    HW2 7927   0.992   2.801   2.208  0.0000  0.0000  0.0000
  780SOL     MW 7928   1.079   2.798   2.217  0.0000  0.0000  0.0000
  781SOL     OW 7929   1.090   2.625   5.808  0.0000  0.0000  0.0000
  781SOL    HW1 7930   1.099   2.711   5.766  0.0000  0.0000  0.0000
  781SOL    HW2 7931   1.082   2.644   5.901  0.0000  0.0000  0.0000
  781SOL     MW 7932   1.090   2.639   5.815  0.0000  0.0000  0.0000
  782SOL     OW 7933   3.167   3.947   1.903  0.0000  0.0000  0.0000
  782SOL    HW1 7934   3.179   3.906   1.817  0.0000  0.0000  0.0000
  782SOL    HW2 7935   3.127   3.879   1.956  0.0000  0.0000  0.0000
  782SOL     MW 7936   3.164   3.933   1.898  0.0000  0.0000  0.0000
  783SOL     OW 7937   2.100   4.785   2.575  0.0000  0.0000  0.0000
  783SOL    HW1 7938   2.128   4.771   2.665  0.0000  0.0000  0.0000
  783SOL    HW2 7939   2.123   4.877   2.557  0.0000  0.0000  0.0000
  783SOL     MW 7940   2.107   4.795   2.584  0.0000  0.0000  0.0000
  784SOL     OW 7941   3.350   3.339   5.128  0.0000  0.0000  0.0000
  784SOL    HW1 7942   3.360   3.248   5.102  0.0000  0.0000  0.0000
  784SOL    HW2 7943   3.397   3.346   5.211  0.0000  0.0000  0.0000
  784SOL     MW 7944   3.357   3.328   5.135  0.0000  0.0000  0.0000
  785SOL     OW 7945   1.248   2.594   6.158  0.0000  0.0000  0.0000
  785SOL    HW1 7946   1.197   2.669   6.125  0.0000  0.0000  0.0000
  785SOL    HW2 7947   1.230   2.524   6.095  0.0000  0.0000  0.0000
  785SOL     MW 7948   1.239   2.595   6.146  0.0000  0.0000  0.0000
  786SOL     OW 7949   3.290   5.649   3.113  0.0000  0.0000  0.0000
  786SOL    HW1 7950   3.295   5.742   3.091  0.0000  0.0000  0.0000
  786SOL    HW2 7951   3.358   5.608   3.061  0.0000  0.0000  0.0000
  786SOL     MW 7952   3.299   5.656   3.103  0.0000  0.0000  0.0000
  787SOL     OW 7953   0.885   5.314   3.301  0.0000  0.0000  0.0000
  787SOL    HW1 7954   0.925   5.348   3.221  0.0000  0.0000  0.0000
  787SOL    HW2 7955   0.792   5.311   3.281  0.0000  0.0000  0.0000
  787SOL     MW 7956   0.878   5.318   3.288  0.0000  0.0000  0.0000
  788SOL     OW 7957   1.841   6.273   3.280  0.0000  0.0000  0.0000
  788SOL    HW1 7958   1.810   6.200   3.226  0.0000  0.0000  0.0000
  788SOL    HW2 7959   1.761   6.319   3.306  0.0000  0.0000  0.0000
  788SOL     MW 7960   1.826   6.269   3.276  0.0000  0.0000  0.0000
  789SOL     OW 7961   0.851   7.183   5.725  0.0000  0.0000  0.0000
  789SOL    HW1 7962   0.938   7.219   5.740  0.0000  0.0000  0.0000
  789SOL    HW2 7963   0.832   7.204   5.633  0.0000  0.0000  0.0000
  789SOL     MW 7964   0.860   7.191   5.715  0.0000  0.0000  0.0000
  790SOL     OW 7965   1.321   6.209   2.956  0.0000  0.0000  0.0000
  790SOL    HW1 7966   1.328   6.293   2.912  0.0000  0.0000  0.0000
  790SOL    HW2 7967   1.380   6.216   3.031  0.0000  0.0000  0.0000
  790SOL     MW 7968   1.330   6.221   2.960  0.0000  0.0000  0.0000
  791SOL     OW 7969   4.179   2.935   1.987  0.0000  0.0000  0.0000
  791SOL    HW1 7970   4.156   3.019   1.945  0.0000  0.0000  0.0000
  791SOL    HW2 7971   4.175   2.953   2.081  0.0000  0.0000  0.0000
  791SOL     MW 7972   4.176   2.949   1.994  0.0000  0.0000  0.0000
  792SOL     OW 7973   2.956   4.614   5.138  0.0000  0.0000  0.0000
  792SOL    HW1 7974   2.931   4.546   5.201  0.0000  0.0000  0.0000
  792SOL    HW2 7975   2.897   4.602   5.064  0.0000  0.0000  0.0000
  792SOL     MW 7976   2.945   4.604   5.137  0.0000  0.0000  0.0000
  793SOL     OW 7977   2.965   5.125   2.938  0.0000  0.0000  0.0000
  793SOL    HW1 7978   2.984   5.096   2.849  0.0000  0.0000  0.0000
  793SOL    HW2 7979   3.015   5.206   2.949  0.0000  0.0000  0.0000
  793SOL     MW 7980   2.974   5.132   2.928  0.0000  0.0000  0.0000
  794SOL     OW 7981   1.050   6.346   4.048  0.0000  0.0000  0.0000
  794SOL    HW1 7982   1.136   6.318   4.018  0.0000  0.0000  0.0000
  794SOL    HW2 7983   1.016   6.269   4.095  0.0000  0.0000  0.0000
  794SOL     MW 7984   1.057   6.332   4.050  0.0000  0.0000  0.0000
  795SOL     OW 7985   3.054   6.237   5.689  0.0000  0.0000  0.0000
  795SOL    HW1 7986   2.999   6.176   5.738  0.0000  0.0000  0.0000
  795SOL    HW2 7987   3.036   6.322   5.730  0.0000  0.0000  0.0000
  795SOL     MW 7988   3.044   6.240   5.701  0.0000  0.0000  0.0000
  796SOL     OW 7989   2.294   5.029   2.505  0.0000  0.0000  0.0000
  796SOL    HW1 7990   2.344   5.007   2.426  0.0000  0.0000  0.0000
  796SOL    HW2 7991   2.340   5.104   2.542  0.0000  0.0000  0.0000
  796SOL     MW 7992   2.307   5.036   2.499  0.0000  0.0000  0.0000
  797SOL     OW 7993   3.127   5.334   2.987  0.0000  0.0000  0.0000
  797SOL    HW1 7994   3.213   5.298   2.964  0.0000  0.0000  0.0000
  797SOL    HW2 7995   3.134   5.355   3.080  0.0000  0.0000  0.0000
  797SOL     MW 7996   3.140   5.332   2.996  0.0000  0.0000  0.0000
  798SOL     OW 7997   1.596   3.645   6.287  0.0000  0.0000  0.0000
  798SOL    HW1 7998   1.613   3.738   6.268  0.0000  0.0000  0.0000
  798SOL    HW2 7999   1.516   3.645   6.338  0.0000  0.0000  0.0000
  798SOL     MW 8000   1.588   3.657   6.291  0.0000  0.0000  0.0000
  799SOL     OW 8001   2.696   5.006   2.781  0.0000  0.0000  0.0000
  799SOL    HW1 8002   2.628   4.949   2.743  0.0000  0.0000  0.0000
  799SOL    HW2 8003   2.776   4.979   2.736  0.0000  0.0000  0.0000
  799SOL     MW 8004   2.697   4.995   2.770  0.0000  0.0000  0.0000
  800SOL     OW 8005   0.669   3.321   2.222  0.0000  0.0000  0.0000
  800SOL    HW1 8006   0.721   3.385   2.271  0.0000  0.0000  0.0000
  800SOL    HW2 8007   0.594   3.304   2.279  0.0000  0.0000  0.0000
  800SOL     MW 8008   0.666   3.327   2.236  0.0000  0.0000  0.0000
  801SOL     OW 8009   0.214   5.353   4.727  0.0000  0.0000  0.0000
  801SOL    HW1 8010   0.291   5.409   4.723  0.0000  0.0000  0.0000
  801SOL    HW2 8011   0.174   5.360   4.641  0.0000  0.0000  0.0000
  801SOL     MW 8012   0.219   5.361   4.715  0.0000  0.0000  0.0000
  802SOL     OW 8013   1.130   3.095   2.248  0.0000  0.0000  0.0000
  802SOL    HW1 8014   1.080   3.080   2.167  0.0000  0.0000  0.0000
  802SOL    HW2 8015   1.181   3.015   2.259  0.0000  0.0000  0.0000
  802SOL     MW 8016   1.130   3.082   2.239  0.0000  0.0000  0.0000
  803SOL     OW 8017   4.006   3.900   5.168  0.0000  0.0000  0.0000
  803SOL    HW1 8018   4.090   3.869   5.134  0.0000  0.0000  0.0000
  803SOL    HW2 8019   3.980   3.833   5.231  0.0000  0.0000  0.0000
  803SOL     MW 8020   4.014   3.887   5.172  0.0000  0.0000  0.0000
  804SOL     OW 8021   1.016   4.846   1.680  0.0000  0.0000  0.0000
  804SOL    HW1 8022   0.945   4.784   1.661  0.0000  0.0000  0.0000
  804SOL    HW2 8023   1.071   4.845   1.601  0.0000  0.0000  0.0000
  804SOL     MW 8024   1.014   4.838   1.667  0.0000  0.0000  0.0000
  805SOL     OW 8025   0.871   3.322   5.769  0.0000  0.0000  0.0000
  805SOL    HW1 8026   0.807   3.365   5.712  0.0000  0.0000  0.0000
  805SOL    HW2 8027   0.955   3.343   5.729  0.0000  0.0000  0.0000
  805SOL     MW 8028   0.873   3.331   5.756  0.0000  0.0000  0.0000
  806SOL     OW 8029   1.143   6.396   2.624  0.0000  0.0000  0.0000
  806SOL    HW1 8030   1.153   6.413   2.531  0.0000  0.0000  0.0000
  806SOL    HW2 8031   1.102   6.475   2.659  0.0000  0.0000  0.0000
  806SOL     MW 8032   1.139   6.409   2.617  0.0000  0.0000  0.0000
  807SOL     OW 8033   0.455   6.024   4.423  0.0000  0.0000  0.0000
  807SOL    HW1 8034   0.406   5.971   4.486  0.0000  0.0000  0.0000
  807SOL    HW2 8035   0.436   5.984   4.338  0.0000  0.0000  0.0000
  807SOL     MW 8036   0.446   6.012   4.420  0.0000  0.0000  0.0000
  808SOL     OW 8037   3.346   6.089   3.652  0.0000  0.0000  0.0000
  808SOL    HW1 8038   3.274   6.105   3.591  0.0000  0.0000  0.0000
  808SOL    HW2 8039   3.316   6.126   3.735  0.0000  0.0000  0.0000
  808SOL     MW 8040   3.333   6.096   3.655  0.0000  0.0000  0.0000
  809SOL     OW 8041   3.107   6.140   3.547  0.0000  0.0000  0.0000
  809SOL    HW1 8042   3.100   6.229   3.581  0.0000  0.0000  0.0000
  809SOL    HW2 8043   3.017   6.108   3.546  0.0000  0.0000  0.0000
  809SOL     MW 8044   3.094   6.147   3.552  0.0000  0.0000  0.0000
  810SOL     OW 8045   2.171   5.613   4.632  0.0000  0.0000  0.0000
  810SOL    HW1 8046   2.103   5.676   4.656  0.0000  0.0000  0.0000
  810SOL    HW2 8047   2.245   5.667   4.605  0.0000  0.0000  0.0000
  810SOL     MW 8048   2.172   5.628   4.632  0.0000  0.0000  0.0000
  811SOL     OW 8049   3.394   6.312   3.920  0.0000  0.0000  0.0000
  811SOL    HW1 8050   3.484   6.329   3.894  0.0000  0.0000  0.0000
  811SOL    HW2 8051   3.341   6.351   3.850  0.0000  0.0000  0.0000
  811SOL     MW 8052   3.399   6.320   3.907  0.0000  0.0000  0.0000
  812SOL     OW 8053   3.073   6.180   3.903  0.0000  0.0000  0.0000
  812SOL    HW1 8054   3.085   6.259   3.849  0.0000  0.0000  0.0000
  812SOL    HW2 8055   3.130   6.194   3.979  0.0000  0.0000  0.0000
  812SOL     MW 8056   3.082   6.193   3.906  0.0000  0.0000  0.0000
  813SOL     OW 8057   3.098   6.430   4.223  0.0000  0.0000  0.0000
  813SOL    HW1 8058   3.058   6.456   4.141  0.0000  0.0000  0.0000
  813SOL    HW2 8059   3.134   6.342   4.206  0.0000  0.0000  0.0000
  813SOL     MW 8060   3.098   6.422   4.210  0.0000  0.0000  0.0000
  814SOL     OW 8061   3.901   4.876   4.453  0.0000  0.0000  0.0000
  814SOL    HW1 8062   3.918   4.782   4.452  0.0000  0.0000  0.0000
  814SOL    HW2 8063   3.913   4.904   4.362  0.0000  0.0000  0.0000
  814SOL     MW 8064   3.905   4.867   4.441  0.0000  0.0000  0.0000
  815SOL     OW 8065   3.010   5.926   3.858  0.0000  0.0000  0.0000
  815SOL    HW1 8066   2.915   5.909   3.853  0.0000  0.0000  0.0000
  815SOL    HW2 8067   3.017   6.020   3.874  0.0000  0.0000  0.0000
  815SOL     MW 8068   2.998   5.936   3.859  0.0000  0.0000  0.0000
  816SOL     OW 8069   3.708   5.694   4.015  0.0000  0.0000  0.0000
  816SOL    HW1 8070   3.768   5.637   3.966  0.0000  0.0000  0.0000
  816SOL    HW2 8071   3.632   5.705   3.958  0.0000  0.0000  0.0000
  816SOL     MW 8072   3.706   5.688   4.001  0.0000  0.0000  0.0000
  817SOL     OW 8073   2.342   4.616   4.110  0.0000  0.0000  0.0000
  817SOL    HW1 8074   2.274   4.554   4.083  0.0000  0.0000  0.0000
  817SOL    HW2 8075   2.328   4.692   4.054  0.0000  0.0000  0.0000
  817SOL     MW 8076   2.331   4.618   4.099  0.0000  0.0000  0.0000
  818SOL     OW 8077   3.471   4.613   3.719  0.0000  0.0000  0.0000
  818SOL    HW1 8078   3.564   4.635   3.723  0.0000  0.0000  0.0000
  818SOL    HW2 8079   3.440   4.621   3.809  0.0000  0.0000  0.0000
  818SOL     MW 8080   3.479   4.617   3.731  0.0000  0.0000  0.0000
  819SOL     OW 8081   3.008   6.490   3.959  0.0000  0.0000  0.0000
  819SOL    HW1 8082   3.008   6.580   3.991  0.0000  0.0000  0.0000
  819SOL    HW2 8083   2.917   6.472   3.938  0.0000  0.0000  0.0000
  819SOL     MW 8084   2.996   6.500   3.961  0.0000  0.0000  0.0000
  820SOL     OW 8085   2.210   4.948   4.758  0.0000  0.0000  0.0000
  820SOL    HW1 8086   2.290   4.996   4.734  0.0000  0.0000  0.0000
  820SOL    HW2 8087   2.165   4.935   4.675  0.0000  0.0000  0.0000
  820SOL     MW 8088   2.215   4.953   4.744  0.0000  0.0000  0.0000
  821SOL     OW 8089   3.916   4.594   4.424  0.0000  0.0000  0.0000
  821SOL    HW1 8090   3.834   4.594   4.374  0.0000  0.0000  0.0000
  821SOL    HW2 8091   3.939   4.501   4.431  0.0000  0.0000  0.0000
  821SOL     MW 8092   3.908   4.582   4.419  0.0000  0.0000  0.0000
  822SOL     OW 8093   2.774   4.994   3.648  0.0000  0.0000  0.0000
  822SOL    HW1 8094   2.802   5.046   3.573  0.0000  0.0000  0.0000
  822SOL    HW2 8095   2.727   4.920   3.610  0.0000  0.0000  0.0000
  822SOL     MW 8096   2.771   4.991   3.633  0.0000  0.0000  0.0000
  823SOL     OW 8097   3.951   4.985   4.215  0.0000  0.0000  0.0000
  823SOL    HW1 8098   3.953   5.078   4.237  0.0000  0.0000  0.0000
  823SOL    HW2 8099   3.924   4.982   4.124  0.0000  0.0000  0.0000
  823SOL     MW 8100   3.948   4.997   4.206  0.0000  0.0000  0.0000
  824SOL     OW 8101   2.690   5.114   4.508  0.0000  0.0000  0.0000
  824SOL    HW1 8102   2.687   5.019   4.521  0.0000  0.0000  0.0000
  824SOL    HW2 8103   2.710   5.150   4.594  0.0000  0.0000  0.0000
  824SOL     MW 8104   2.692   5.106   4.521  0.0000  0.0000  0.0000
  825SOL     OW 8105   3.447   4.591   3.990  0.0000  0.0000  0.0000
  825SOL    HW1 8106   3.372   4.645   4.017  0.0000  0.0000  0.0000
  825SOL    HW2 8107   3.415   4.501   3.995  0.0000  0.0000  0.0000
  825SOL     MW 8108   3.433   4.586   3.994  0.0000  0.0000  0.0000
  826SOL     OW 8109   3.719   5.683   4.292  0.0000  0.0000  0.0000
  826SOL    HW1 8110   3.632   5.674   4.331  0.0000  0.0000  0.0000
  826SOL    HW2 8111   3.703   5.689   4.198  0.0000  0.0000  0.0000
  826SOL     MW 8112   3.706   5.683   4.285  0.0000  0.0000  0.0000
  827SOL     OW 8113   2.179   5.408   4.450  0.0000  0.0000  0.0000
  827SOL    HW1 8114   2.090   5.376   4.432  0.0000  0.0000  0.0000
  827SOL    HW2 8115   2.169   5.460   4.530  0.0000  0.0000  0.0000
  827SOL     MW 8116   2.166   5.411   4.458  0.0000  0.0000  0.0000
  828SOL     OW 8117   2.789   3.002   2.254  0.0000  0.0000  0.0000
  828SOL    HW1 8118   2.821   3.052   2.179  0.0000  0.0000  0.0000
  828SOL    HW2 8119   2.840   3.036   2.328  0.0000  0.0000  0.0000
  828SOL     MW 8120   2.800   3.013   2.254  0.0000  0.0000  0.0000
  829SOL     OW 8121   1.792   4.678   1.627  0.0000  0.0000  0.0000
  829SOL    HW1 8122   1.717   4.659   1.571  0.0000  0.0000  0.0000
  829SOL    HW2 8123   1.753   4.700   1.712  0.0000  0.0000  0.0000
  829SOL     MW 8124   1.777   4.679   1.631  0.0000  0.0000  0.0000
  830SOL     OW 8125   1.048   4.865   2.145  0.0000  0.0000  0.0000
  830SOL    HW1 8126   0.955   4.881   2.127  0.0000  0.0000  0.0000
  830SOL    HW2 8127   1.049   4.824   2.232  0.0000  0.0000  0.0000
  830SOL     MW 8128   1.036   4.861   2.154  0.0000  0.0000  0.0000
  831SOL     OW 8129   0.229   6.301   6.388  0.0000  0.0000  0.0000
  831SOL    HW1 8130   0.320   6.274   6.378  0.0000  0.0000  0.0000
  831SOL    HW2 8131   0.220   6.319   6.482  0.0000  0.0000  0.0000
  831SOL     MW 8132   0.240   6.300   6.399  0.0000  0.0000  0.0000
  832SOL     OW 8133   4.150   6.302   2.623  0.0000  0.0000  0.0000
  832SOL    HW1 8134   4.103   6.257   2.553  0.0000  0.0000  0.0000
  832SOL    HW2 8135   4.088   6.304   2.696  0.0000  0.0000  0.0000
  832SOL     MW 8136   4.136   6.297   2.624  0.0000  0.0000  0.0000
  833SOL     OW 8137   1.591   2.781   5.572  0.0000  0.0000  0.0000
  833SOL    HW1 8138   1.618   2.760   5.662  0.0000  0.0000  0.0000
  833SOL    HW2 8139   1.563   2.697   5.536  0.0000  0.0000  0.0000
  833SOL     MW 8140   1.591   2.767   5.579  0.0000  0.0000  0.0000
  834SOL     OW 8141   3.928   6.848   2.191  0.0000  0.0000  0.0000
  834SOL    HW1 8142   3.988   6.909   2.232  0.0000  0.0000  0.0000
  834SOL    HW2 8143   3.913   6.883   2.103  0.0000  0.0000  0.0000
  834SOL     MW 8144   3.934   6.861   2.185  0.0000  0.0000  0.0000
  835SOL     OW 8145   3.880   2.642   2.612  0.0000  0.0000  0.0000
  835SOL    HW1 8146   3.880   2.723   2.663  0.0000  0.0000  0.0000
  835SOL    HW2 8147   3.953   2.652   2.551  0.0000  0.0000  0.0000
  835SOL     MW 8148   3.890   2.654   2.611  0.0000  0.0000  0.0000
  836SOL     OW 8149   3.135   4.921   6.113  0.0000  0.0000  0.0000
  836SOL    HW1 8150   3.219   4.941   6.154  0.0000  0.0000  0.0000
  836SOL    HW2 8151   3.159   4.890   6.026  0.0000  0.0000  0.0000
  836SOL     MW 8152   3.149   4.920   6.107  0.0000  0.0000  0.0000
  837SOL     OW 8153   1.949   5.908   6.053  0.0000  0.0000  0.0000
  837SOL    HW1 8154   1.873   5.901   6.111  0.0000  0.0000  0.0000
  837SOL    HW2 8155   2.024   5.885   6.108  0.0000  0.0000  0.0000
  837SOL     MW 8156   1.949   5.904   6.068  0.0000  0.0000  0.0000
  838SOL     OW 8157   1.013   5.920   5.802  0.0000  0.0000  0.0000
  838SOL    HW1 8158   1.070   5.891   5.874  0.0000  0.0000  0.0000
  838SOL    HW2 8159   1.072   5.931   5.728  0.0000  0.0000  0.0000
  838SOL     MW 8160   1.028   5.918   5.802  0.0000  0.0000  0.0000
  839SOL     OW 8161   0.252   4.114   6.286  0.0000  0.0000  0.0000
  839SOL    HW1 8162   0.291   4.048   6.227  0.0000  0.0000  0.0000
  839SOL    HW2 8163   0.316   4.185   6.286  0.0000  0.0000  0.0000
  839SOL     MW 8164   0.266   4.114   6.278  0.0000  0.0000  0.0000
  840SOL     OW 8165   3.804   6.467   4.593  0.0000  0.0000  0.0000
  840SOL    HW1 8166   3.791   6.561   4.580  0.0000  0.0000  0.0000
  840SOL    HW2 8167   3.889   6.460   4.635  0.0000  0.0000  0.0000
  840SOL     MW 8168   3.813   6.479   4.597  0.0000  0.0000  0.0000
  841SOL     OW 8169   3.414   4.179   6.501  0.0000  0.0000  0.0000
  841SOL    HW1 8170   3.340   4.211   6.450  0.0000  0.0000  0.0000
  841SOL    HW2 8171   3.468   4.130   6.438  0.0000  0.0000  0.0000
  841SOL     MW 8172   3.412   4.177   6.486  0.0000  0.0000  0.0000
  842SOL     OW 8173   3.142   5.097   2.071  0.0000  0.0000  0.0000
  842SOL    HW1 8174   3.168   5.188   2.085  0.0000  0.0000  0.0000
  842SOL    HW2 8175   3.047   5.099   2.072  0.0000  0.0000  0.0000
  842SOL     MW 8176   3.133   5.109   2.073  0.0000  0.0000  0.0000
  843SOL     OW 8177   1.638   6.631   5.155  0.0000  0.0000  0.0000
  843SOL    HW1 8178   1.598   6.544   5.158  0.0000  0.0000  0.0000
  843SOL    HW2 8179   1.586   6.679   5.090  0.0000  0.0000  0.0000
  843SOL     MW 8180   1.626   6.626   5.147  0.0000  0.0000  0.0000
  844SOL     OW 8181   2.810   4.630   1.628  0.0000  0.0000  0.0000
  844SOL    HW1 8182   2.753   4.554   1.626  0.0000  0.0000  0.0000
  844SOL    HW2 8183   2.761   4.696   1.677  0.0000  0.0000  0.0000
  844SOL     MW 8184   2.796   4.629   1.634  0.0000  0.0000  0.0000
  845SOL     OW 8185   3.871   6.097   2.781  0.0000  0.0000  0.0000
  845SOL    HW1 8186   3.916   6.181   2.770  0.0000  0.0000  0.0000
  845SOL    HW2 8187   3.937   6.040   2.822  0.0000  0.0000  0.0000
  845SOL     MW 8188   3.886   6.100   2.785  0.0000  0.0000  0.0000
  846SOL     OW 8189   1.708   2.815   5.322  0.0000  0.0000  0.0000
  846SOL    HW1 8190   1.649   2.870   5.272  0.0000  0.0000  0.0000
  846SOL    HW2 8191   1.662   2.798   5.404  0.0000  0.0000  0.0000
  846SOL     MW 8192   1.694   2.820   5.326  0.0000  0.0000  0.0000
  847SOL     OW 8193   1.010   2.913   6.269  0.0000  0.0000  0.0000
  847SOL    HW1 8194   1.057   2.996   6.259  0.0000  0.0000  0.0000
  847SOL    HW2 8195   0.918   2.936   6.256  0.0000  0.0000  0.0000
  847SOL     MW 8196   1.004   2.927   6.266  0.0000  0.0000  0.0000
  848SOL     OW 8197   1.774   5.626   1.989  0.0000  0.0000  0.0000
  848SOL    HW1 8198   1.684   5.656   1.994  0.0000  0.0000  0.0000
  848SOL    HW2 8199   1.781   5.585   1.902  0.0000  0.0000  0.0000
  848SOL     MW 8200   1.763   5.625   1.978  0.0000  0.0000  0.0000
  849SOL     OW 8201   4.491   2.724   5.375  0.0000  0.0000  0.0000
  849SOL    HW1 8202   4.441   2.771   5.441  0.0000  0.0000  0.0000
  849SOL    HW2 8203   4.428   2.663   5.336  0.0000  0.0000  0.0000
  849SOL     MW 8204   4.476   2.722   5.379  0.0000  0.0000  0.0000
  850SOL     OW 8205   0.851   3.076   5.671  0.0000  0.0000  0.0000
  850SOL    HW1 8206   0.847   3.158   5.721  0.0000  0.0000  0.0000
  850SOL    HW2 8207   0.905   3.096   5.596  0.0000  0.0000  0.0000
  850SOL     MW 8208   0.857   3.089   5.668  0.0000  0.0000  0.0000
  851SOL     OW 8209   4.662   2.844   5.718  0.0000  0.0000  0.0000
  851SOL    HW1 8210   4.723   2.837   5.645  0.0000  0.0000  0.0000
  851SOL    HW2 8211   4.700   2.912   5.774  0.0000  0.0000  0.0000
  851SOL     MW 8212   4.675   2.852   5.716  0.0000  0.0000  0.0000
  852SOL     OW 8213   2.974   6.965   5.699  0.0000  0.0000  0.0000
  852SOL    HW1 8214   2.888   6.985   5.663  0.0000  0.0000  0.0000
  852SOL    HW2 8215   2.971   6.998   5.789  0.0000  0.0000  0.0000
  852SOL     MW 8216   2.962   6.972   5.706  0.0000  0.0000  0.0000
  853SOL     OW 8217   2.199   7.018   6.177  0.0000  0.0000  0.0000
  853SOL    HW1 8218   2.291   7.030   6.154  0.0000  0.0000  0.0000
  853SOL    HW2 8219   2.200   7.002   6.272  0.0000  0.0000  0.0000
  853SOL     MW 8220   2.211   7.018   6.187  0.0000  0.0000  0.0000
  854SOL     OW 8221   1.716   2.971   5.941  0.0000  0.0000  0.0000
  854SOL    HW1 8222   1.671   3.049   5.974  0.0000  0.0000  0.0000
  854SOL    HW2 8223   1.809   2.992   5.946  0.0000  0.0000  0.0000
  854SOL     MW 8224   1.722   2.984   5.946  0.0000  0.0000  0.0000
  855SOL     OW 8225   3.336   5.680   2.771  0.0000  0.0000  0.0000
  855SOL    HW1 8226   3.301   5.766   2.794  0.0000  0.0000  0.0000
  855SOL    HW2 8227   3.330   5.677   2.676  0.0000  0.0000  0.0000
  855SOL     MW 8228   3.331   5.691   2.761  0.0000  0.0000  0.0000
  856SOL     OW 8229   2.987   5.150   6.408  0.0000  0.0000  0.0000
  856SOL    HW1 8230   2.965   5.164   6.316  0.0000  0.0000  0.0000
  856SOL    HW2 8231   2.945   5.222   6.455  0.0000  0.0000  0.0000
  856SOL     MW 8232   2.979   5.161   6.402  0.0000  0.0000  0.0000
  857SOL     OW 8233   1.295   2.725   5.342  0.0000  0.0000  0.0000
  857SOL    HW1 8234   1.342   2.707   5.261  0.0000  0.0000  0.0000
  857SOL    HW2 8235   1.279   2.639   5.380  0.0000  0.0000  0.0000
  857SOL     MW 8236   1.299   2.712   5.336  0.0000  0.0000  0.0000
  858SOL     OW 8237   1.394   3.320   6.216  0.0000  0.0000  0.0000
  858SOL    HW1 8238   1.335   3.387   6.183  0.0000  0.0000  0.0000
  858SOL    HW2 8239   1.428   3.357   6.298  0.0000  0.0000  0.0000
  858SOL     MW 8240   1.391   3.334   6.223  0.0000  0.0000  0.0000
  859SOL     OW 8241   3.672   3.953   5.430  0.0000  0.0000  0.0000
  859SOL    HW1 8242   3.687   4.004   5.509  0.0000  0.0000  0.0000
  859SOL    HW2 8243   3.620   4.010   5.373  0.0000  0.0000  0.0000
  859SOL     MW 8244   3.667   3.967   5.433  0.0000  0.0000  0.0000
  860SOL     OW 8245   4.635   6.167   4.932  0.0000  0.0000  0.0000
  860SOL    HW1 8246   4.669   6.253   4.957  0.0000  0.0000  0.0000
  860SOL    HW2 8247   4.584   6.138   5.008  0.0000  0.0000  0.0000
  860SOL     MW 8248   4.633   6.174   4.945  0.0000  0.0000  0.0000
  861SOL     OW 8249   0.497   5.338   1.670  0.0000  0.0000  0.0000
  861SOL    HW1 8250   0.478   5.253   1.630  0.0000  0.0000  0.0000
  861SOL    HW2 8251   0.584   5.327   1.708  0.0000  0.0000  0.0000
  861SOL     MW 8252   0.506   5.325   1.670  0.0000  0.0000  0.0000
  862SOL     OW 8253   3.080   3.191   2.204  0.0000  0.0000  0.0000
  862SOL    HW1 8254   3.093   3.103   2.241  0.0000  0.0000  0.0000
  862SOL    HW2 8255   3.004   3.182   2.147  0.0000  0.0000  0.0000
  862SOL     MW 8256   3.072   3.178   2.201  0.0000  0.0000  0.0000
  863SOL     OW 8257   0.077   5.857   6.377  0.0000  0.0000  0.0000
  863SOL    HW1 8258   0.083   5.875   6.470  0.0000  0.0000  0.0000
  863SOL    HW2 8259   0.158   5.811   6.356  0.0000  0.0000  0.0000
  863SOL     MW 8260   0.088   5.853   6.386  0.0000  0.0000  0.0000
  864SOL     OW 8261   4.368   5.690   4.834  0.0000  0.0000  0.0000
  864SOL    HW1 8262   4.361   5.601   4.869  0.0000  0.0000  0.0000
  864SOL    HW2 8263   4.292   5.700   4.777  0.0000  0.0000  0.0000
  864SOL     MW 8264   4.357   5.680   4.831  0.0000  0.0000  0.0000
  865SOL     OW 8265   0.946   2.961   5.900  0.0000  0.0000  0.0000
  865SOL    HW1 8266   0.946   2.970   5.805  0.0000  0.0000  0.0000
  865SOL    HW2 8267   1.002   2.885   5.917  0.0000  0.0000  0.0000
  865SOL     MW 8268   0.953   2.952   5.890  0.0000  0.0000  0.0000
  866SOL     OW 8269   2.773   6.236   2.271  0.0000  0.0000  0.0000
  866SOL    HW1 8270   2.691   6.252   2.316  0.0000  0.0000  0.0000
  866SOL    HW2 8271   2.771   6.293   2.195  0.0000  0.0000  0.0000
  866SOL     MW 8272   2.762   6.245   2.267  0.0000  0.0000  0.0000
  867SOL     OW 8273   2.659   5.878   6.206  0.0000  0.0000  0.0000
  867SOL    HW1 8274   2.616   5.888   6.290  0.0000  0.0000  0.0000
  867SOL    HW2 8275   2.726   5.947   6.204  0.0000  0.0000  0.0000
  867SOL     MW 8276   2.662   5.888   6.217  0.0000  0.0000  0.0000
  868SOL     OW 8277   3.380   5.020   6.217  0.0000  0.0000  0.0000
  868SOL    HW1 8278   3.408   4.929   6.206  0.0000  0.0000  0.0000
  868SOL    HW2 8279   3.434   5.070   6.156  0.0000  0.0000  0.0000
  868SOL     MW 8280   3.391   5.015   6.207  0.0000  0.0000  0.0000
  869SOL     OW 8281   1.921   6.194   2.083  0.0000  0.0000  0.0000
  869SOL    HW1 8282   1.920   6.258   2.154  0.0000  0.0000  0.0000
  869SOL    HW2 8283   1.914   6.110   2.127  0.0000  0.0000  0.0000
  869SOL     MW 8284   1.920   6.191   2.098  0.0000  0.0000  0.0000
  870SOL     OW 8285   1.568   5.275   1.745  0.0000  0.0000  0.0000
  870SOL    HW1 8286   1.489   5.224   1.769  0.0000  0.0000  0.0000
  870SOL    HW2 8287   1.617   5.217   1.687  0.0000  0.0000  0.0000
  870SOL     MW 8288   1.564   5.260   1.741  0.0000  0.0000  0.0000
  871SOL     OW 8289   0.307   3.976   6.015  0.0000  0.0000  0.0000
  871SOL    HW1 8290   0.301   3.919   5.939  0.0000  0.0000  0.0000
  871SOL    HW2 8291   0.302   4.065   5.979  0.0000  0.0000  0.0000
  871SOL     MW 8292   0.306   3.980   6.000  0.0000  0.0000  0.0000
  872SOL     OW 8293   4.048   6.208   5.326  0.0000  0.0000  0.0000
  872SOL    HW1 8294   4.027   6.295   5.293  0.0000  0.0000  0.0000
  872SOL    HW2 8295   4.126   6.221   5.379  0.0000  0.0000  0.0000
  872SOL     MW 8296   4.055   6.221   5.328  0.0000  0.0000  0.0000
  873SOL     OW 8297   4.452   2.649   6.367  0.0000  0.0000  0.0000
  873SOL    HW1 8298   4.528   2.607   6.326  0.0000  0.0000  0.0000
  873SOL    HW2 8299   4.463   2.742   6.347  0.0000  0.0000  0.0000
  873SOL     MW 8300   4.464   2.656   6.359  0.0000  0.0000  0.0000
  874SOL     OW 8301   2.235   2.848   4.801  0.0000  0.0000  0.0000
  874SOL    HW1 8302   2.308   2.843   4.863  0.0000  0.0000  0.0000
  874SOL    HW2 8303   2.160   2.816   4.851  0.0000  0.0000  0.0000
  874SOL     MW 8304   2.235   2.843   4.816  0.0000  0.0000  0.0000
  875SOL     OW 8305   0.150   6.549   5.844  0.0000  0.0000  0.0000
  875SOL    HW1 8306   0.102   6.514   5.920  0.0000  0.0000  0.0000
  875SOL    HW2 8307   0.231   6.583   5.880  0.0000  0.0000  0.0000
  875SOL     MW 8308   0.154   6.549   5.859  0.0000  0.0000  0.0000
  876SOL     OW 8309   0.795   3.245   6.145  0.0000  0.0000  0.0000
  876SOL    HW1 8310   0.877   3.209   6.112  0.0000  0.0000  0.0000
  876SOL    HW2 8311   0.822   3.305   6.215  0.0000  0.0000  0.0000
  876SOL     MW 8312   0.810   3.248   6.150  0.0000  0.0000  0.0000
  877SOL     OW 8313   0.727   7.109   3.926  0.0000  0.0000  0.0000
  877SOL    HW1 8314   0.821   7.123   3.935  0.0000  0.0000  0.0000
  877SOL    HW2 8315   0.718   7.049   3.852  0.0000  0.0000  0.0000
  877SOL     MW 8316   0.738   7.103   3.918  0.0000  0.0000  0.0000
  878SOL     OW 8317   1.396   3.758   4.561  0.0000  0.0000  0.0000
  878SOL    HW1 8318   1.302   3.774   4.574  0.0000  0.0000  0.0000
  878SOL    HW2 8319   1.408   3.764   4.466  0.0000  0.0000  0.0000
  878SOL     MW 8320   1.385   3.761   4.550  0.0000  0.0000  0.0000
  879SOL     OW 8321   2.779   6.593   4.518  0.0000  0.0000  0.0000
  879SOL    HW1 8322   2.707   6.543   4.558  0.0000  0.0000  0.0000
  879SOL    HW2 8323   2.845   6.528   4.497  0.0000  0.0000  0.0000
  879SOL     MW 8324   2.778   6.578   4.521  0.0000  0.0000  0.0000
  880SOL     OW 8325   3.542   6.851   4.493  0.0000  0.0000  0.0000
  880SOL    HW1 8326   3.476   6.794   4.532  0.0000  0.0000  0.0000
  880SOL    HW2 8327   3.624   6.824   4.533  0.0000  0.0000  0.0000
  880SOL     MW 8328   3.544   6.840   4.503  0.0000  0.0000  0.0000
  881SOL     OW 8329   3.181   6.401   3.761  0.0000  0.0000  0.0000
  881SOL    HW1 8330   3.167   6.453   3.682  0.0000  0.0000  0.0000
  881SOL    HW2 8331   3.131   6.446   3.829  0.0000  0.0000  0.0000
  881SOL     MW 8332   3.173   6.414   3.759  0.0000  0.0000  0.0000
  882SOL     OW 8333   1.184   2.717   2.473  0.0000  0.0000  0.0000
  882SOL    HW1 8334   1.141   2.742   2.391  0.0000  0.0000  0.0000
  882SOL    HW2 8335   1.199   2.623   2.465  0.0000  0.0000  0.0000
  882SOL     MW 8336   1.180   2.708   2.461  0.0000  0.0000  0.0000
  883SOL     OW 8337   3.235   6.215   4.111  0.0000  0.0000  0.0000
  883SOL    HW1 8338   3.288   6.256   4.043  0.0000  0.0000  0.0000
  883SOL    HW2 8339   3.268   6.125   4.116  0.0000  0.0000  0.0000
  883SOL     MW 8340   3.246   6.208   4.103  0.0000  0.0000  0.0000
  884SOL     OW 8341   1.789   3.101   1.994  0.0000  0.0000  0.0000
  884SOL    HW1 8342   1.829   3.079   1.910  0.0000  0.0000  0.0000
  884SOL    HW2 8343   1.824   3.186   2.017  0.0000  0.0000  0.0000
  884SOL     MW 8344   1.799   3.109   1.986  0.0000  0.0000  0.0000
  885SOL     OW 8345   4.433   3.227   1.924  0.0000  0.0000  0.0000
  885SOL    HW1 8346   4.435   3.321   1.943  0.0000  0.0000  0.0000
  885SOL    HW2 8347   4.458   3.221   1.832  0.0000  0.0000  0.0000
  885SOL     MW 8348   4.437   3.239   1.914  0.0000  0.0000  0.0000
  886SOL     OW 8349   3.097   4.133   3.270  0.0000  0.0000  0.0000
  886SOL    HW1 8350   3.143   4.163   3.348  0.0000  0.0000  0.0000
  886SOL    HW2 8351   3.012   4.177   3.274  0.0000  0.0000  0.0000
  886SOL     MW 8352   3.092   4.143   3.281  0.0000  0.0000  0.0000
  887SOL     OW 8353   3.195   7.133   6.089  0.0000  0.0000  0.0000
  887SOL    HW1 8354   3.162   7.078   6.019  0.0000  0.0000  0.0000
  887SOL    HW2 8355   3.233   7.209   6.045  0.0000  0.0000  0.0000
  887SOL     MW 8356   3.196   7.136   6.074  0.0000  0.0000  0.0000
  888SOL     OW 8357   3.769   4.386   1.714  0.0000  0.0000  0.0000
  888SOL    HW1 8358   3.750   4.480   1.706  0.0000  0.0000  0.0000
  888SOL    HW2 8359   3.857   4.376   1.678  0.0000  0.0000  0.0000
  888SOL     MW 8360   3.778   4.397   1.708  0.0000  0.0000  0.0000
  889SOL     OW 8361   2.252   4.715   1.908  0.0000  0.0000  0.0000
  889SOL    HW1 8362   2.341   4.742   1.930  0.0000  0.0000  0.0000
  889SOL    HW2 8363   2.226   4.659   1.982  0.0000  0.0000  0.0000
  889SOL     MW 8364   2.260   4.711   1.921  0.0000  0.0000  0.0000
  890SOL     OW 8365   4.395   3.895   2.533  0.0000  0.0000  0.0000
  890SOL    HW1 8366   4.412   3.864   2.444  0.0000  0.0000  0.0000
  890SOL    HW2 8367   4.418   3.822   2.589  0.0000  0.0000  0.0000
  890SOL     MW 8368   4.400   3.881   2.528  0.0000  0.0000  0.0000
  891SOL     OW 8369   0.623   5.293   4.787  0.0000  0.0000  0.0000
  891SOL    HW1 8370   0.633   5.379   4.745  0.0000  0.0000  0.0000
  891SOL    HW2 8371   0.678   5.298   4.865  0.0000  0.0000  0.0000
  891SOL     MW 8372   0.631   5.305   4.792  0.0000  0.0000  0.0000
  892SOL     OW 8373   0.817   4.761   1.907  0.0000  0.0000  0.0000
  892SOL    HW1 8374   0.866   4.799   1.833  0.0000  0.0000  0.0000
  892SOL    HW2 8375   0.859   4.675   1.920  0.0000  0.0000  0.0000
  892SOL     MW 8376   0.829   4.755   1.899  0.0000  0.0000  0.0000
  893SOL     OW 8377   1.775   6.737   6.169  0.0000  0.0000  0.0000
  893SOL    HW1 8378   1.769   6.700   6.257  0.0000  0.0000  0.0000
  893SOL    HW2 8379   1.688   6.773   6.152  0.0000  0.0000  0.0000
  893SOL     MW 8380   1.763   6.737   6.178  0.0000  0.0000  0.0000
  894SOL     OW 8381   3.142   2.640   6.300  0.0000  0.0000  0.0000
  894SOL    HW1 8382   3.074   2.707   6.292  0.0000  0.0000  0.0000
  894SOL    HW2 8383   3.144   2.598   6.214  0.0000  0.0000  0.0000
  894SOL     MW 8384   3.134   2.644   6.288  0.0000  0.0000  0.0000
  895SOL     OW 8385   4.161   2.903   5.279  0.0000  0.0000  0.0000
  895SOL    HW1 8386   4.124   2.986   5.311  0.0000  0.0000  0.0000
  895SOL    HW2 8387   4.221   2.876   5.349  0.0000  0.0000  0.0000
  895SOL     MW 8388   4.164   2.911   5.293  0.0000  0.0000  0.0000
  896SOL     OW 8389   2.277   6.082   5.878  0.0000  0.0000  0.0000
  896SOL    HW1 8390   2.348   6.018   5.890  0.0000  0.0000  0.0000
  896SOL    HW2 8391   2.262   6.084   5.784  0.0000  0.0000  0.0000
  896SOL     MW 8392   2.285   6.074   5.867  0.0000  0.0000  0.0000
  897SOL     OW 8393   1.175   6.440   2.355  0.0000  0.0000  0.0000
  897SOL    HW1 8394   1.143   6.363   2.308  0.0000  0.0000  0.0000
  897SOL    HW2 8395   1.237   6.481   2.295  0.0000  0.0000  0.0000
  897SOL     MW 8396   1.179   6.436   2.341  0.0000  0.0000  0.0000
  898SOL     OW 8397   0.143   4.461   5.858  0.0000  0.0000  0.0000
  898SOL    HW1 8398   0.066   4.409   5.837  0.0000  0.0000  0.0000
  898SOL    HW2 8399   0.143   4.532   5.793  0.0000  0.0000  0.0000
  898SOL     MW 8400   0.133   4.463   5.847  0.0000  0.0000  0.0000
  899SOL     OW 8401   0.784   5.279   1.717  0.0000  0.0000  0.0000
  899SOL    HW1 8402   0.790   5.215   1.646  0.0000  0.0000  0.0000
  899SOL    HW2 8403   0.802   5.229   1.796  0.0000  0.0000  0.0000
  899SOL     MW 8404   0.787   5.264   1.718  0.0000  0.0000  0.0000
  900SOL     OW 8405   1.437   2.823   2.482  0.0000  0.0000  0.0000
  900SOL    HW1 8406   1.442   2.892   2.415  0.0000  0.0000  0.0000
  900SOL    HW2 8407   1.373   2.761   2.448  0.0000  0.0000  0.0000
  900SOL     MW 8408   1.429   2.824   2.469  0.0000  0.0000  0.0000
  901SOL     OW 8409   4.404   5.499   5.960  0.0000  0.0000  0.0000
  901SOL    HW1 8410   4.496   5.476   5.947  0.0000  0.0000  0.0000
  901SOL    HW2 8411   4.387   5.565   5.893  0.0000  0.0000  0.0000
  901SOL     MW 8412   4.414   5.505   5.949  0.0000  0.0000  0.0000
  902SOL     OW 8413   2.572   6.509   1.981  0.0000  0.0000  0.0000
  902SOL    HW1 8414   2.518   6.435   2.011  0.0000  0.0000  0.0000
  902SOL    HW2 8415   2.575   6.499   1.886  0.0000  0.0000  0.0000
  902SOL     MW 8416   2.565   6.498   1.973  0.0000  0.0000  0.0000
  903SOL     OW 8417   3.898   2.867   2.756  0.0000  0.0000  0.0000
  903SOL    HW1 8418   3.837   2.927   2.713  0.0000  0.0000  0.0000
  903SOL    HW2 8419   3.910   2.905   2.843  0.0000  0.0000  0.0000
  903SOL     MW 8420   3.892   2.880   2.762  0.0000  0.0000  0.0000
  904SOL     OW 8421   1.226   7.132   5.581  0.0000  0.0000  0.0000
  904SOL    HW1 8422   1.171   7.144   5.659  0.0000  0.0000  0.0000
  904SOL    HW2 8423   1.174   7.075   5.524  0.0000  0.0000  0.0000
  904SOL     MW 8424   1.212   7.126   5.584  0.0000  0.0000  0.0000
  905SOL     OW 8425   1.898   6.274   5.908  0.0000  0.0000  0.0000
  905SOL    HW1 8426   1.870   6.360   5.937  0.0000  0.0000  0.0000
  905SOL    HW2 8427   1.882   6.217   5.983  0.0000  0.0000  0.0000
  905SOL     MW 8428   1.892   6.278   5.922  0.0000  0.0000  0.0000
  906SOL     OW 8429   1.692   5.094   1.581  0.0000  0.0000  0.0000
  906SOL    HW1 8430   1.762   5.030   1.583  0.0000  0.0000  0.0000
  906SOL    HW2 8431   1.613   5.043   1.562  0.0000  0.0000  0.0000
  906SOL     MW 8432   1.691   5.079   1.578  0.0000  0.0000  0.0000
  907SOL     OW 8433   3.117   7.065   1.682  0.0000  0.0000  0.0000
  907SOL    HW1 8434   3.148   7.028   1.765  0.0000  0.0000  0.0000
  907SOL    HW2 8435   3.059   7.136   1.708  0.0000  0.0000  0.0000
  907SOL     MW 8436   3.113   7.070   1.697  0.0000  0.0000  0.0000
  908SOL     OW 8437   4.607   3.167   1.678  0.0000  0.0000  0.0000
  908SOL    HW1 8438   4.619   3.164   1.583  0.0000  0.0000  0.0000
  908SOL    HW2 8439   4.623   3.258   1.701  0.0000  0.0000  0.0000
  908SOL     MW 8440   4.610   3.179   1.668  0.0000  0.0000  0.0000
  909SOL     OW 8441   0.702   3.062   1.803  0.0000  0.0000  0.0000
  909SOL    HW1 8442   0.741   3.121   1.868  0.0000  0.0000  0.0000
  909SOL    HW2 8443   0.620   3.103   1.778  0.0000  0.0000  0.0000
  909SOL     MW 8444   0.696   3.075   1.809  0.0000  0.0000  0.0000
  910SOL     OW 8445   4.054   7.172   6.017  0.0000  0.0000  0.0000
  910SOL    HW1 8446   4.149   7.181   6.028  0.0000  0.0000  0.0000
  910SOL    HW2 8447   4.017   7.220   6.091  0.0000  0.0000  0.0000
  910SOL     MW 8448   4.062   7.179   6.028  0.0000  0.0000  0.0000
  911SOL     OW 8449   1.341   2.944   6.044  0.0000  0.0000  0.0000
  911SOL    HW1 8450   1.395   2.929   6.121  0.0000  0.0000  0.0000
  911SOL    HW2 8451   1.390   2.904   5.972  0.0000  0.0000  0.0000
  911SOL     MW 8452   1.355   2.937   6.045  0.0000  0.0000  0.0000
  912SOL     OW 8453   0.133   4.925   6.350  0.0000  0.0000  0.0000
  912SOL    HW1 8454   0.160   4.866   6.421  0.0000  0.0000  0.0000
  912SOL    HW2 8455   0.125   4.868   6.273  0.0000  0.0000  0.0000
  912SOL     MW 8456   0.136   4.910   6.349  0.0000  0.0000  0.0000
  913SOL     OW 8457   2.101   6.273   1.546  0.0000  0.0000  0.0000
  913SOL    HW1 8458   2.102   6.356   1.594  0.0000  0.0000  0.0000
  913SOL    HW2 8459   2.142   6.210   1.606  0.0000  0.0000  0.0000
  913SOL     MW 8460   2.107   6.276   1.560  0.0000  0.0000  0.0000
  914SOL     OW 8461   0.125   2.633   2.156  0.0000  0.0000  0.0000
  914SOL    HW1 8462   0.098   2.541   2.159  0.0000  0.0000  0.0000
  914SOL    HW2 8463   0.205   2.636   2.209  0.0000  0.0000  0.0000
  914SOL     MW 8464   0.132   2.621   2.163  0.0000  0.0000  0.0000
  915SOL     OW 8465   4.469   6.053   5.127  0.0000  0.0000  0.0000
  915SOL    HW1 8466   4.523   5.987   5.170  0.0000  0.0000  0.0000
  915SOL    HW2 8467   4.414   6.003   5.067  0.0000  0.0000  0.0000
  915SOL     MW 8468   4.469   6.037   5.125  0.0000  0.0000  0.0000
  916SOL     OW 8469   3.980   6.056   6.167  0.0000  0.0000  0.0000
  916SOL    HW1 8470   3.967   6.101   6.083  0.0000  0.0000  0.0000
  916SOL    HW2 8471   3.891   6.039   6.199  0.0000  0.0000  0.0000
  916SOL     MW 8472   3.966   6.060   6.160  0.0000  0.0000  0.0000
  917SOL     OW 8473   2.522   2.975   6.117  0.0000  0.0000  0.0000
  917SOL    HW1 8474   2.614   2.971   6.143  0.0000  0.0000  0.0000
  917SOL    HW2 8475   2.525   3.000   6.024  0.0000  0.0000  0.0000
  917SOL     MW 8476   2.535   2.978   6.108  0.0000  0.0000  0.0000
  918SOL     OW 8477   2.693   6.591   5.797  0.0000  0.0000  0.0000
  918SOL    HW1 8478   2.776   6.626   5.764  0.0000  0.0000  0.0000
  918SOL    HW2 8479   2.682   6.631   5.883  0.0000  0.0000  0.0000
  918SOL     MW 8480   2.703   6.601   5.804  0.0000  0.0000  0.0000
  919SOL     OW 8481   1.072   3.925   1.572  0.0000  0.0000  0.0000
  919SOL    HW1 8482   1.073   3.883   1.658  0.0000  0.0000  0.0000
  919SOL    HW2 8483   1.006   3.876   1.523  0.0000  0.0000  0.0000
  919SOL     MW 8484   1.063   3.913   1.577  0.0000  0.0000  0.0000
  920SOL     OW 8485   4.122   3.066   1.618  0.0000  0.0000  0.0000
  920SOL    HW1 8486   4.150   3.074   1.709  0.0000  0.0000  0.0000
  920SOL    HW2 8487   4.186   3.006   1.579  0.0000  0.0000  0.0000
  920SOL     MW 8488   4.135   3.059   1.625  0.0000  0.0000  0.0000
  921SOL     OW 8489   2.137   6.718   3.994  0.0000  0.0000  0.0000
  921SOL    HW1 8490   2.106   6.795   4.041  0.0000  0.0000  0.0000
  921SOL    HW2 8491   2.182   6.754   3.917  0.0000  0.0000  0.0000
  921SOL     MW 8492   2.139   6.733   3.990  0.0000  0.0000  0.0000
  922SOL     OW 8493   1.562   6.486   5.992  0.0000  0.0000  0.0000
  922SOL    HW1 8494   1.610   6.405   5.971  0.0000  0.0000  0.0000
  922SOL    HW2 8495   1.596   6.512   6.077  0.0000  0.0000  0.0000
  922SOL     MW 8496   1.573   6.479   6.000  0.0000  0.0000  0.0000
  923SOL     OW 8497   0.113   6.866   1.743  0.0000  0.0000  0.0000
  923SOL    HW1 8498   0.154   6.925   1.680  0.0000  0.0000  0.0000
  923SOL    HW2 8499   0.167   6.787   1.740  0.0000  0.0000  0.0000
  923SOL     MW 8500   0.126   6.863   1.734  0.0000  0.0000  0.0000
  924SOL     OW 8501   4.147   2.963   2.938  0.0000  0.0000  0.0000
  924SOL    HW1 8502   4.190   2.975   2.854  0.0000  0.0000  0.0000
  924SOL    HW2 8503   4.169   3.042   2.988  0.0000  0.0000  0.0000
  924SOL     MW 8504   4.156   2.975   2.934  0.0000  0.0000  0.0000
  925SOL     OW 8505   0.334   3.678   4.964  0.0000  0.0000  0.0000
  925SOL    HW1 8506   0.304   3.695   5.053  0.0000  0.0000  0.0000
  925SOL    HW2 8507   0.255   3.682   4.910  0.0000  0.0000  0.0000
  925SOL     MW 8508   0.320   3.680   4.969  0.0000  0.0000  0.0000
  926SOL     OW 8509   4.057   4.115   4.256  0.0000  0.0000  0.0000
  926SOL    HW1 8510   4.030   4.205   4.237  0.0000  0.0000  0.0000
  926SOL    HW2 8511   4.031   4.100   4.347  0.0000  0.0000  0.0000
  926SOL     MW 8512   4.050   4.125   4.265  0.0000  0.0000  0.0000
  927SOL     OW 8513   4.428   3.942   5.298  0.0000  0.0000  0.0000
  927SOL    HW1 8514   4.500   4.004   5.293  0.0000  0.0000  0.0000
  927SOL    HW2 8515   4.445   3.892   5.378  0.0000  0.0000  0.0000
  927SOL     MW 8516   4.440   3.944   5.308  0.0000  0.0000  0.0000
  928SOL     OW 8517   4.019   5.187   6.538  0.0000  0.0000  0.0000
  928SOL    HW1 8518   3.951   5.146   6.484  0.0000  0.0000  0.0000
  928SOL    HW2 8519   4.096   5.132   6.527  0.0000  0.0000  0.0000
  928SOL     MW 8520   4.020   5.175   6.529  0.0000  0.0000  0.0000
  929SOL     OW 8521   4.540   4.762   6.460  0.0000  0.0000  0.0000
  929SOL    HW1 8522   4.610   4.824   6.439  0.0000  0.0000  0.0000
  929SOL    HW2 8523   4.492   4.803   6.532  0.0000  0.0000  0.0000
  929SOL     MW 8524   4.543   4.775   6.467  0.0000  0.0000  0.0000
  930SOL     OW 8525   0.681   4.126   4.002  0.0000  0.0000  0.0000
  930SOL    HW1 8526   0.744   4.131   3.929  0.0000  0.0000  0.0000
  930SOL    HW2 8527   0.643   4.213   4.006  0.0000  0.0000  0.0000
  930SOL     MW 8528   0.684   4.138   3.993  0.0000  0.0000  0.0000
  931SOL     OW 8529   3.848   3.737   5.357  0.0000  0.0000  0.0000
  931SOL    HW1 8530   3.793   3.709   5.284  0.0000  0.0000  0.0000
  931SOL    HW2 8531   3.799   3.809   5.398  0.0000  0.0000  0.0000
  931SOL     MW 8532   3.834   3.743   5.353  0.0000  0.0000  0.0000
  932SOL     OW 8533   4.335   2.759   4.415  0.0000  0.0000  0.0000
  932SOL    HW1 8534   4.257   2.801   4.451  0.0000  0.0000  0.0000
  932SOL    HW2 8535   4.303   2.679   4.374  0.0000  0.0000  0.0000
  932SOL     MW 8536   4.321   2.754   4.414  0.0000  0.0000  0.0000
  933SOL     OW 8537   4.298   3.547   4.586  0.0000  0.0000  0.0000
  933SOL    HW1 8538   4.368   3.590   4.636  0.0000  0.0000  0.0000
  933SOL    HW2 8539   4.224   3.607   4.593  0.0000  0.0000  0.0000
  933SOL     MW 8540   4.298   3.561   4.594  0.0000  0.0000  0.0000
  934SOL     OW 8541   1.943   3.024   5.682  0.0000  0.0000  0.0000
  934SOL    HW1 8542   1.928   2.943   5.633  0.0000  0.0000  0.0000
  934SOL    HW2 8543   1.862   3.073   5.671  0.0000  0.0000  0.0000
  934SOL     MW 8544   1.930   3.019   5.674  0.0000  0.0000  0.0000
  935SOL     OW 8545   2.659   6.382   6.519  0.0000  0.0000  0.0000
  935SOL    HW1 8546   2.607   6.305   6.540  0.0000  0.0000  0.0000
  935SOL    HW2 8547   2.643   6.398   6.426  0.0000  0.0000  0.0000
  935SOL     MW 8548   2.650   6.374   6.509  0.0000  0.0000  0.0000
  936SOL     OW 8549   0.189   6.801   2.049  0.0000  0.0000  0.0000
  936SOL    HW1 8550   0.148   6.884   2.073  0.0000  0.0000  0.0000
  936SOL    HW2 8551   0.179   6.746   2.126  0.0000  0.0000  0.0000
  936SOL     MW 8552   0.182   6.805   2.062  0.0000  0.0000  0.0000
  937SOL     OW 8553   3.201   4.229   6.342  0.0000  0.0000  0.0000
  937SOL    HW1 8554   3.178   4.287   6.269  0.0000  0.0000  0.0000
  937SOL    HW2 8555   3.122   4.225   6.395  0.0000  0.0000  0.0000
  937SOL     MW 8556   3.188   4.236   6.339  0.0000  0.0000  0.0000
  938SOL     OW 8557   4.098   5.513   6.299  0.0000  0.0000  0.0000
  938SOL    HW1 8558   4.186   5.478   6.285  0.0000  0.0000  0.0000
  938SOL    HW2 8559   4.093   5.529   6.393  0.0000  0.0000  0.0000
  938SOL     MW 8560   4.109   5.510   6.309  0.0000  0.0000  0.0000
  939SOL     OW 8561   4.506   4.215   5.156  0.0000  0.0000  0.0000
  939SOL    HW1 8562   4.480   4.254   5.240  0.0000  0.0000  0.0000
  939SOL    HW2 8563   4.425   4.177   5.122  0.0000  0.0000  0.0000
  939SOL     MW 8564   4.492   4.215   5.163  0.0000  0.0000  0.0000
  940SOL     OW 8565   2.508   6.835   5.343  0.0000  0.0000  0.0000
  940SOL    HW1 8566   2.453   6.790   5.279  0.0000  0.0000  0.0000
  940SOL    HW2 8567   2.526   6.769   5.409  0.0000  0.0000  0.0000
  940SOL     MW 8568   2.503   6.820   5.343  0.0000  0.0000  0.0000
  941SOL     OW 8569   2.143   5.699   1.832  0.0000  0.0000  0.0000
  941SOL    HW1 8570   2.136   5.604   1.819  0.0000  0.0000  0.0000
  941SOL    HW2 8571   2.172   5.709   1.922  0.0000  0.0000  0.0000
  941SOL     MW 8572   2.146   5.688   1.842  0.0000  0.0000  0.0000
  942SOL     OW 8573   4.438   6.197   3.466  0.0000  0.0000  0.0000
  942SOL    HW1 8574   4.404   6.284   3.489  0.0000  0.0000  0.0000
  942SOL    HW2 8575   4.426   6.191   3.371  0.0000  0.0000  0.0000
  942SOL     MW 8576   4.432   6.208   3.456  0.0000  0.0000  0.0000
  943SOL     OW 8577   1.191   3.988   3.146  0.0000  0.0000  0.0000
  943SOL    HW1 8578   1.198   3.965   3.053  0.0000  0.0000  0.0000
  943SOL    HW2 8579   1.098   3.973   3.166  0.0000  0.0000  0.0000
  943SOL     MW 8580   1.179   3.983   3.136  0.0000  0.0000  0.0000
  944SOL     OW 8581   1.890   5.814   1.836  0.0000  0.0000  0.0000
  944SOL    HW1 8582   1.836   5.759   1.893  0.0000  0.0000  0.0000
  944SOL    HW2 8583   1.974   5.767   1.831  0.0000  0.0000  0.0000
  944SOL     MW 8584   1.894   5.800   1.843  0.0000  0.0000  0.0000
  945SOL     OW 8585   3.836   7.034   3.239  0.0000  0.0000  0.0000
  945SOL    HW1 8586   3.904   6.983   3.283  0.0000  0.0000  0.0000
  945SOL    HW2 8587   3.849   7.017   3.146  0.0000  0.0000  0.0000
  945SOL     MW 8588   3.846   7.025   3.233  0.0000  0.0000  0.0000
  946SOL     OW 8589   4.379   6.301   5.214  0.0000  0.0000  0.0000
  946SOL    HW1 8590   4.345   6.293   5.303  0.0000  0.0000  0.0000
  946SOL    HW2 8591   4.407   6.213   5.190  0.0000  0.0000  0.0000
  946SOL     MW 8592   4.378   6.289   5.223  0.0000  0.0000  0.0000
  947SOL     OW 8593   3.900   3.459   5.387  0.0000  0.0000  0.0000
  947SOL    HW1 8594   3.897   3.551   5.360  0.0000  0.0000  0.0000
  947SOL    HW2 8595   3.921   3.412   5.306  0.0000  0.0000  0.0000
  947SOL     MW 8596   3.903   3.465   5.372  0.0000  0.0000  0.0000
  948SOL     OW 8597   1.748   3.922   2.091  0.0000  0.0000  0.0000
  948SOL    HW1 8598   1.658   3.944   2.070  0.0000  0.0000  0.0000
  948SOL    HW2 8599   1.766   3.842   2.043  0.0000  0.0000  0.0000
  948SOL     MW 8600   1.739   3.914   2.082  0.0000  0.0000  0.0000
  949SOL     OW 8601   1.068   4.168   4.219  0.0000  0.0000  0.0000
  949SOL    HW1 8602   1.105   4.132   4.138  0.0000  0.0000  0.0000
  949SOL    HW2 8603   0.979   4.133   4.223  0.0000  0.0000  0.0000
  949SOL     MW 8604   1.061   4.159   4.209  0.0000  0.0000  0.0000
  950SOL     OW 8605   3.905   3.357   5.638  0.0000  0.0000  0.0000
  950SOL    HW1 8606   3.892   3.376   5.545  0.0000  0.0000  0.0000
  950SOL    HW2 8607   3.818   3.330   5.669  0.0000  0.0000  0.0000
  950SOL     MW 8608   3.892   3.356   5.630  0.0000  0.0000  0.0000
  951SOL     OW 8609   4.417   2.922   6.239  0.0000  0.0000  0.0000
  951SOL    HW1 8610   4.354   2.992   6.252  0.0000  0.0000  0.0000
  951SOL    HW2 8611   4.495   2.965   6.203  0.0000  0.0000  0.0000
  951SOL     MW 8612   4.419   2.937   6.236  0.0000  0.0000  0.0000
  952SOL     OW 8613   2.975   2.631   1.772  0.0000  0.0000  0.0000
  952SOL    HW1 8614   2.917   2.605   1.843  0.0000  0.0000  0.0000
  952SOL    HW2 8615   2.927   2.699   1.725  0.0000  0.0000  0.0000
  952SOL     MW 8616   2.961   2.636   1.775  0.0000  0.0000  0.0000
  953SOL     OW 8617   1.972   4.435   5.979  0.0000  0.0000  0.0000
  953SOL    HW1 8618   1.882   4.406   5.964  0.0000  0.0000  0.0000
  953SOL    HW2 8619   2.015   4.361   6.022  0.0000  0.0000  0.0000
  953SOL     MW 8620   1.966   4.422   5.983  0.0000  0.0000  0.0000
  954SOL     OW 8621   3.805   4.143   6.408  0.0000  0.0000  0.0000
  954SOL    HW1 8622   3.759   4.226   6.405  0.0000  0.0000  0.0000
  954SOL    HW2 8623   3.737   4.077   6.391  0.0000  0.0000  0.0000
  954SOL     MW 8624   3.790   4.145   6.405  0.0000  0.0000  0.0000
  955SOL     OW 8625   3.896   5.413   3.341  0.0000  0.0000  0.0000
  955SOL    HW1 8626   3.944   5.457   3.411  0.0000  0.0000  0.0000
  955SOL    HW2 8627   3.813   5.387   3.382  0.0000  0.0000  0.0000
  955SOL     MW 8628   3.891   5.416   3.356  0.0000  0.0000  0.0000
  956SOL     OW 8629   0.512   4.403   2.841  0.0000  0.0000  0.0000
  956SOL    HW1 8630   0.490   4.491   2.874  0.0000  0.0000  0.0000
  956SOL    HW2 8631   0.443   4.384   2.778  0.0000  0.0000  0.0000
  956SOL     MW 8632   0.500   4.412   2.837  0.0000  0.0000  0.0000
  957SOL     OW 8633   0.410   5.545   3.072  0.0000  0.0000  0.0000
  957SOL    HW1 8634   0.502   5.561   3.050  0.0000  0.0000  0.0000
  957SOL    HW2 8635   0.384   5.622   3.122  0.0000  0.0000  0.0000
  957SOL     MW 8636   0.419   5.557   3.076  0.0000  0.0000  0.0000
  958SOL     OW 8637   4.583   6.591   3.299  0.0000  0.0000  0.0000
  958SOL    HW1 8638   4.646   6.574   3.369  0.0000  0.0000  0.0000
  958SOL    HW2 8639   4.606   6.677   3.266  0.0000  0.0000  0.0000
  958SOL     MW 8640   4.594   6.600   3.304  0.0000  0.0000  0.0000
  959SOL     OW 8641   0.199   5.387   3.004  0.0000  0.0000  0.0000
  959SOL    HW1 8642   0.283   5.432   3.014  0.0000  0.0000  0.0000
  959SOL    HW2 8643   0.153   5.404   3.086  0.0000  0.0000  0.0000
  959SOL     MW 8644   0.204   5.395   3.016  0.0000  0.0000  0.0000
  960SOL     OW 8645   0.414   5.901   3.041  0.0000  0.0000  0.0000
  960SOL    HW1 8646   0.448   5.874   3.126  0.0000  0.0000  0.0000
  960SOL    HW2 8647   0.337   5.846   3.027  0.0000  0.0000  0.0000
  960SOL     MW 8648   0.409   5.890   3.050  0.0000  0.0000  0.0000
  961SOL     OW 8649   3.549   5.962   3.500  0.0000  0.0000  0.0000
  961SOL    HW1 8650   3.610   5.921   3.561  0.0000  0.0000  0.0000
  961SOL    HW2 8651   3.482   6.002   3.556  0.0000  0.0000  0.0000
  961SOL     MW 8652   3.548   5.962   3.515  0.0000  0.0000  0.0000
  962SOL     OW 8653   2.336   6.492   6.083  0.0000  0.0000  0.0000
  962SOL    HW1 8654   2.293   6.575   6.065  0.0000  0.0000  0.0000
  962SOL    HW2 8655   2.268   6.426   6.065  0.0000  0.0000  0.0000
  962SOL     MW 8656   2.321   6.494   6.078  0.0000  0.0000  0.0000
  963SOL     OW 8657   0.319   3.067   1.856  0.0000  0.0000  0.0000
  963SOL    HW1 8658   0.339   3.009   1.930  0.0000  0.0000  0.0000
  963SOL    HW2 8659   0.226   3.088   1.867  0.0000  0.0000  0.0000
  963SOL     MW 8660   0.309   3.062   1.867  0.0000  0.0000  0.0000
  964SOL     OW 8661   3.925   3.823   2.187  0.0000  0.0000  0.0000
  964SOL    HW1 8662   3.944   3.873   2.109  0.0000  0.0000  0.0000
  964SOL    HW2 8663   3.991   3.851   2.251  0.0000  0.0000  0.0000
  964SOL     MW 8664   3.936   3.833   2.185  0.0000  0.0000  0.0000
  965SOL     OW 8665   4.066   6.116   2.469  0.0000  0.0000  0.0000
  965SOL    HW1 8666   4.070   6.067   2.386  0.0000  0.0000  0.0000
  965SOL    HW2 8667   4.103   6.056   2.534  0.0000  0.0000  0.0000
  965SOL     MW 8668   4.071   6.101   2.466  0.0000  0.0000  0.0000
  966SOL     OW 8669   0.860   6.535   4.303  0.0000  0.0000  0.0000
  966SOL    HW1 8670   0.936   6.545   4.245  0.0000  0.0000  0.0000
  966SOL    HW2 8671   0.810   6.616   4.292  0.0000  0.0000  0.0000
  966SOL     MW 8672   0.864   6.547   4.294  0.0000  0.0000  0.0000
  967SOL     OW 8673   1.333   6.427   2.803  0.0000  0.0000  0.0000
  967SOL    HW1 8674   1.329   6.522   2.807  0.0000  0.0000  0.0000
  967SOL    HW2 8675   1.285   6.404   2.723  0.0000  0.0000  0.0000
  967SOL     MW 8676   1.326   6.436   2.793  0.0000  0.0000  0.0000
  968SOL     OW 8677   1.532   3.705   2.309  0.0000  0.0000  0.0000
  968SOL    HW1 8678   1.515   3.771   2.242  0.0000  0.0000  0.0000
  968SOL    HW2 8679   1.623   3.678   2.295  0.0000  0.0000  0.0000
  968SOL     MW 8680   1.542   3.710   2.298  0.0000  0.0000  0.0000
  969SOL     OW 8681   3.347   3.992   1.649  0.0000  0.0000  0.0000
  969SOL    HW1 8682   3.291   4.007   1.573  0.0000  0.0000  0.0000
  969SOL    HW2 8683   3.398   4.073   1.658  0.0000  0.0000  0.0000
  969SOL     MW 8684   3.346   4.005   1.640  0.0000  0.0000  0.0000
  970SOL     OW 8685   0.815   5.037   3.918  0.0000  0.0000  0.0000
  970SOL    HW1 8686   0.744   4.985   3.956  0.0000  0.0000  0.0000
  970SOL    HW2 8687   0.895   4.996   3.951  0.0000  0.0000  0.0000
  970SOL     MW 8688   0.816   5.025   3.928  0.0000  0.0000  0.0000
  971SOL     OW 8689   4.399   4.002   4.537  0.0000  0.0000  0.0000
  971SOL    HW1 8690   4.465   4.068   4.517  0.0000  0.0000  0.0000
  971SOL    HW2 8691   4.449   3.922   4.551  0.0000  0.0000  0.0000
  971SOL     MW 8692   4.414   4.000   4.536  0.0000  0.0000  0.0000
  972SOL     OW 8693   0.334   7.166   5.903  0.0000  0.0000  0.0000
  972SOL    HW1 8694   0.408   7.158   5.844  0.0000  0.0000  0.0000
  972SOL    HW2 8695   0.360   7.115   5.980  0.0000  0.0000  0.0000
  972SOL     MW 8696   0.347   7.158   5.906  0.0000  0.0000  0.0000
  973SOL     OW 8697   4.166   5.083   3.153  0.0000  0.0000  0.0000
  973SOL    HW1 8698   4.127   5.129   3.227  0.0000  0.0000  0.0000
  973SOL    HW2 8699   4.255   5.063   3.181  0.0000  0.0000  0.0000
  973SOL     MW 8700   4.173   5.087   3.166  0.0000  0.0000  0.0000
  974SOL     OW 8701   3.913   5.116   1.914  0.0000  0.0000  0.0000
  974SOL    HW1 8702   3.885   5.196   1.870  0.0000  0.0000  0.0000
  974SOL    HW2 8703   3.884   5.045   1.856  0.0000  0.0000  0.0000
  974SOL     MW 8704   3.905   5.117   1.901  0.0000  0.0000  0.0000
  975SOL     OW 8705   3.477   5.155   4.153  0.0000  0.0000  0.0000
  975SOL    HW1 8706   3.412   5.181   4.218  0.0000  0.0000  0.0000
  975SOL    HW2 8707   3.444   5.072   4.118  0.0000  0.0000  0.0000
  975SOL     MW 8708   3.464   5.148   4.157  0.0000  0.0000  0.0000
  976SOL     OW 8709   1.815   3.647   3.135  0.0000  0.0000  0.0000
  976SOL    HW1 8710   1.849   3.709   3.070  0.0000  0.0000  0.0000
  976SOL    HW2 8711   1.727   3.678   3.155  0.0000  0.0000  0.0000
  976SOL     MW 8712   1.808   3.660   3.129  0.0000  0.0000  0.0000
  977SOL     OW 8713   3.890   5.193   4.965  0.0000  0.0000  0.0000
  977SOL    HW1 8714   3.806   5.149   4.954  0.0000  0.0000  0.0000
  977SOL    HW2 8715   3.915   5.175   5.055  0.0000  0.0000  0.0000
  977SOL     MW 8716   3.882   5.185   4.975  0.0000  0.0000  0.0000
  978SOL     OW 8717   1.585   2.840   3.554  0.0000  0.0000  0.0000
  978SOL    HW1 8718   1.538   2.923   3.563  0.0000  0.0000  0.0000
  978SOL    HW2 8719   1.551   2.802   3.473  0.0000  0.0000  0.0000
  978SOL     MW 8720   1.574   2.846   3.544  0.0000  0.0000  0.0000
  979SOL     OW 8721   2.520   6.264   2.403  0.0000  0.0000  0.0000
  979SOL    HW1 8722   2.534   6.238   2.494  0.0000  0.0000  0.0000
  979SOL    HW2 8723   2.469   6.345   2.410  0.0000  0.0000  0.0000
  979SOL     MW 8724   2.515   6.271   2.416  0.0000  0.0000  0.0000
  980SOL     OW 8725   1.312   7.103   3.813  0.0000  0.0000  0.0000
  980SOL    HW1 8726   1.305   7.065   3.726  0.0000  0.0000  0.0000
  980SOL    HW2 8727   1.342   7.193   3.798  0.0000  0.0000  0.0000
  980SOL     MW 8728   1.315   7.110   3.800  0.0000  0.0000  0.0000
  981SOL     OW 8729   4.192   5.384   4.065  0.0000  0.0000  0.0000
  981SOL    HW1 8730   4.249   5.317   4.101  0.0000  0.0000  0.0000
  981SOL    HW2 8731   4.103   5.353   4.085  0.0000  0.0000  0.0000
  981SOL     MW 8732   4.188   5.371   4.072  0.0000  0.0000  0.0000
  982SOL     OW 8733   3.833   4.692   5.450  0.0000  0.0000  0.0000
  982SOL    HW1 8734   3.781   4.629   5.499  0.0000  0.0000  0.0000
  982SOL    HW2 8735   3.906   4.641   5.415  0.0000  0.0000  0.0000
  982SOL     MW 8736   3.836   4.677   5.452  0.0000  0.0000  0.0000
  983SOL     OW 8737   2.872   4.811   1.937  0.0000  0.0000  0.0000
  983SOL    HW1 8738   2.863   4.726   1.980  0.0000  0.0000  0.0000
  983SOL    HW2 8739   2.802   4.813   1.872  0.0000  0.0000  0.0000
  983SOL     MW 8740   2.862   4.800   1.934  0.0000  0.0000  0.0000
  984SOL     OW 8741   0.039   3.154   2.040  0.0000  0.0000  0.0000
  984SOL    HW1 8742  -0.044   3.196   2.017  0.0000  0.0000  0.0000
  984SOL    HW2 8743   0.017   3.061   2.048  0.0000  0.0000  0.0000
  984SOL     MW 8744   0.025   3.147   2.038  0.0000  0.0000  0.0000
  985SOL     OW 8745   3.272   6.136   5.835  0.0000  0.0000  0.0000
  985SOL    HW1 8746   3.209   6.119   5.905  0.0000  0.0000  0.0000
  985SOL    HW2 8747   3.218   6.165   5.761  0.0000  0.0000  0.0000
  985SOL     MW 8748   3.256   6.138   5.834  0.0000  0.0000  0.0000
  986SOL     OW 8749   2.117   3.307   6.239  0.0000  0.0000  0.0000
  986SOL    HW1 8750   2.170   3.386   6.229  0.0000  0.0000  0.0000
  986SOL    HW2 8751   2.180   3.235   6.237  0.0000  0.0000  0.0000
  986SOL     MW 8752   2.132   3.308   6.238  0.0000  0.0000  0.0000
  987SOL     OW 8753   1.552   6.383   2.247  0.0000  0.0000  0.0000
  987SOL    HW1 8754   1.467   6.410   2.212  0.0000  0.0000  0.0000
  987SOL    HW2 8755   1.561   6.292   2.218  0.0000  0.0000  0.0000
  987SOL     MW 8756   1.542   6.374   2.238  0.0000  0.0000  0.0000
  988SOL     OW 8757   3.124   4.410   6.155  0.0000  0.0000  0.0000
  988SOL    HW1 8758   3.137   4.499   6.188  0.0000  0.0000  0.0000
  988SOL    HW2 8759   3.029   4.403   6.142  0.0000  0.0000  0.0000
  988SOL     MW 8760   3.113   4.421   6.158  0.0000  0.0000  0.0000
  989SOL     OW 8761   0.775   4.787   6.206  0.0000  0.0000  0.0000
  989SOL    HW1 8762   0.753   4.869   6.251  0.0000  0.0000  0.0000
  989SOL    HW2 8763   0.718   4.785   6.130  0.0000  0.0000  0.0000
  989SOL     MW 8764   0.765   4.798   6.202  0.0000  0.0000  0.0000
  990SOL     OW 8765   1.835   2.651   6.464  0.0000  0.0000  0.0000
  990SOL    HW1 8766   1.917   2.671   6.509  0.0000  0.0000  0.0000
  990SOL    HW2 8767   1.791   2.589   6.521  0.0000  0.0000  0.0000
  990SOL     MW 8768   1.840   2.646   6.477  0.0000  0.0000  0.0000
  991SOL     OW 8769   0.055   5.139   6.473  0.0000  0.0000  0.0000
  991SOL    HW1 8770   0.110   5.212   6.443  0.0000  0.0000  0.0000
  991SOL    HW2 8771   0.087   5.063   6.426  0.0000  0.0000  0.0000
  991SOL     MW 8772   0.066   5.139   6.463  0.0000  0.0000  0.0000
  992SOL     OW 8773   2.844   3.629   2.027  0.0000  0.0000  0.0000
  992SOL    HW1 8774   2.802   3.593   2.105  0.0000  0.0000  0.0000
  992SOL    HW2 8775   2.916   3.683   2.060  0.0000  0.0000  0.0000
  992SOL     MW 8776   2.848   3.631   2.041  0.0000  0.0000  0.0000
  993SOL     OW 8777   1.048   7.169   2.012  0.0000  0.0000  0.0000
  993SOL    HW1 8778   1.137   7.145   2.039  0.0000  0.0000  0.0000
  993SOL    HW2 8779   1.040   7.134   1.923  0.0000  0.0000  0.0000
  993SOL     MW 8780   1.059   7.162   2.004  0.0000  0.0000  0.0000
  994SOL     OW 8781   4.181   3.067   6.296  0.0000  0.0000  0.0000
  994SOL    HW1 8782   4.192   3.058   6.391  0.0000  0.0000  0.0000
  994SOL    HW2 8783   4.196   3.161   6.280  0.0000  0.0000  0.0000
  994SOL     MW 8784   4.185   3.078   6.306  0.0000  0.0000  0.0000
  995SOL     OW 8785   0.313   2.760   6.039  0.0000  0.0000  0.0000
  995SOL    HW1 8786   0.331   2.679   5.992  0.0000  0.0000  0.0000
  995SOL    HW2 8787   0.219   2.774   6.028  0.0000  0.0000  0.0000
  995SOL     MW 8788   0.303   2.751   6.032  0.0000  0.0000  0.0000
  996SOL     OW 8789   1.326   7.179   1.855  0.0000  0.0000  0.0000
  996SOL    HW1 8790   1.342   7.211   1.766  0.0000  0.0000  0.0000
  996SOL    HW2 8791   1.404   7.127   1.876  0.0000  0.0000  0.0000
  996SOL     MW 8792   1.339   7.176   1.846  0.0000  0.0000  0.0000
  997SOL     OW 8793   4.426   6.457   3.491  0.0000  0.0000  0.0000
  997SOL    HW1 8794   4.468   6.499   3.416  0.0000  0.0000  0.0000
  997SOL    HW2 8795   4.466   6.498   3.567  0.0000  0.0000  0.0000
  997SOL     MW 8796   4.437   6.468   3.491  0.0000  0.0000  0.0000
  998SOL     OW 8797   1.901   4.088   1.935  0.0000  0.0000  0.0000
  998SOL    HW1 8798   1.972   4.025   1.924  0.0000  0.0000  0.0000
  998SOL    HW2 8799   1.833   4.040   1.982  0.0000  0.0000  0.0000
  998SOL     MW 8800   1.902   4.073   1.940  0.0000  0.0000  0.0000
  999SOL     OW 8801   3.875   3.089   6.444  0.0000  0.0000  0.0000
  999SOL    HW1 8802   3.872   3.110   6.351  0.0000  0.0000  0.0000
  999SOL    HW2 8803   3.784   3.072   6.468  0.0000  0.0000  0.0000
  999SOL     MW 8804   3.863   3.090   6.435  0.0000  0.0000  0.0000
 1000SOL     OW 8805   2.606   6.846   1.616  0.0000  0.0000  0.0000
 1000SOL    HW1 8806   2.611   6.883   1.704  0.0000  0.0000  0.0000
 1000SOL    HW2 8807   2.670   6.775   1.616  0.0000  0.0000  0.0000
 1000SOL     MW 8808   2.615   6.842   1.628  0.0000  0.0000  0.0000
 1001SOL     OW 8809   1.236   3.959   2.884  0.0000  0.0000  0.0000
 1001SOL    HW1 8810   1.153   3.979   2.840  0.0000  0.0000  0.0000
 1001SOL    HW2 8811   1.245   3.864   2.875  0.0000  0.0000  0.0000
 1001SOL     MW 8812   1.226   3.949   2.877  0.0000  0.0000  0.0000
 1002SOL     OW 8813   2.382   2.736   2.363  0.0000  0.0000  0.0000
 1002SOL    HW1 8814   2.308   2.725   2.422  0.0000  0.0000  0.0000
 1002SOL    HW2 8815   2.381   2.829   2.340  0.0000  0.0000  0.0000
 1002SOL     MW 8816   2.372   2.747   2.368  0.0000  0.0000  0.0000
 1003SOL     OW 8817   1.935   2.873   2.556  0.0000  0.0000  0.0000
 1003SOL    HW1 8818   1.862   2.931   2.531  0.0000  0.0000  0.0000
 1003SOL    HW2 8819   2.002   2.932   2.591  0.0000  0.0000  0.0000
 1003SOL     MW 8820   1.934   2.889   2.557  0.0000  0.0000  0.0000
 1004SOL     OW 8821   0.803   5.132   3.668  0.0000  0.0000  0.0000
 1004SOL    HW1 8822   0.810   5.104   3.760  0.0000  0.0000  0.0000
 1004SOL    HW2 8823   0.772   5.222   3.673  0.0000  0.0000  0.0000
 1004SOL     MW 8824   0.800   5.140   3.681  0.0000  0.0000  0.0000
 1005SOL     OW 8825   3.149   3.450   2.334  0.0000  0.0000  0.0000
 1005SOL    HW1 8826   3.168   3.518   2.269  0.0000  0.0000  0.0000
 1005SOL    HW2 8827   3.123   3.374   2.281  0.0000  0.0000  0.0000
 1005SOL     MW 8828   3.148   3.449   2.318  0.0000  0.0000  0.0000
 1006SOL     OW 8829   0.977   3.685   2.691  0.0000  0.0000  0.0000
 1006SOL    HW1 8830   0.900   3.740   2.678  0.0000  0.0000  0.0000
 1006SOL    HW2 8831   0.945   3.612   2.744  0.0000  0.0000  0.0000
 1006SOL     MW 8832   0.963   3.683   2.696  0.0000  0.0000  0.0000
 1007SOL     OW 8833   1.046   2.612   3.736  0.0000  0.0000  0.0000
 1007SOL    HW1 8834   1.130   2.587   3.697  0.0000  0.0000  0.0000
 1007SOL    HW2 8835   1.040   2.559   3.815  0.0000  0.0000  0.0000
 1007SOL     MW 8836   1.057   2.602   3.741  0.0000  0.0000  0.0000
 1008SOL     OW 8837   0.543   4.312   5.568  0.0000  0.0000  0.0000
 1008SOL    HW1 8838   0.579   4.254   5.501  0.0000  0.0000  0.0000
 1008SOL    HW2 8839   0.455   4.279   5.584  0.0000  0.0000  0.0000
 1008SOL     MW 8840   0.536   4.300   5.561  0.0000  0.0000  0.0000
 1009SOL     OW 8841   0.693   6.148   4.500  0.0000  0.0000  0.0000
 1009SOL    HW1 8842   0.615   6.104   4.466  0.0000  0.0000  0.0000
 1009SOL    HW2 8843   0.739   6.180   4.423  0.0000  0.0000  0.0000
 1009SOL     MW 8844   0.689   6.146   4.486  0.0000  0.0000  0.0000
 1010SOL     OW 8845   2.916   3.660   6.374  0.0000  0.0000  0.0000
 1010SOL    HW1 8846   2.826   3.672   6.345  0.0000  0.0000  0.0000
 1010SOL    HW2 8847   2.913   3.674   6.468  0.0000  0.0000  0.0000
 1010SOL     MW 8848   2.904   3.663   6.382  0.0000  0.0000  0.0000
 1011SOL     OW 8849   3.972   5.722   6.182  0.0000  0.0000  0.0000
 1011SOL    HW1 8850   3.997   5.633   6.206  0.0000  0.0000  0.0000
 1011SOL    HW2 8851   3.922   5.755   6.257  0.0000  0.0000  0.0000
 1011SOL     MW 8852   3.968   5.715   6.195  0.0000  0.0000  0.0000
 1012SOL     OW 8853   0.686   5.618   3.076  0.0000  0.0000  0.0000
 1012SOL    HW1 8854   0.731   5.568   3.008  0.0000  0.0000  0.0000
 1012SOL    HW2 8855   0.749   5.625   3.147  0.0000  0.0000  0.0000
 1012SOL     MW 8856   0.700   5.613   3.076  0.0000  0.0000  0.0000
 1013SOL     OW 8857   4.025   3.331   3.014  0.0000  0.0000  0.0000
 1013SOL    HW1 8858   3.931   3.312   3.013  0.0000  0.0000  0.0000
 1013SOL    HW2 8859   4.032   3.415   3.059  0.0000  0.0000  0.0000
 1013SOL     MW 8860   4.013   3.340   3.020  0.0000  0.0000  0.0000
 1014SOL     OW 8861   2.138   5.848   6.231  0.0000  0.0000  0.0000
 1014SOL    HW1 8862   2.114   5.846   6.324  0.0000  0.0000  0.0000
 1014SOL    HW2 8863   2.231   5.823   6.230  0.0000  0.0000  0.0000
 1014SOL     MW 8864   2.148   5.844   6.243  0.0000  0.0000  0.0000
 1015SOL     OW 8865   2.663   2.638   5.173  0.0000  0.0000  0.0000
 1015SOL    HW1 8866   2.679   2.546   5.154  0.0000  0.0000  0.0000
 1015SOL    HW2 8867   2.624   2.638   5.260  0.0000  0.0000  0.0000
 1015SOL     MW 8868   2.660   2.626   5.182  0.0000  0.0000  0.0000
 1016SOL     OW 8869   4.159   6.152   4.244  0.0000  0.0000  0.0000
 1016SOL    HW1 8870   4.128   6.126   4.330  0.0000  0.0000  0.0000
 1016SOL    HW2 8871   4.146   6.247   4.241  0.0000  0.0000  0.0000
 1016SOL     MW 8872   4.153   6.161   4.255  0.0000  0.0000  0.0000
 1017SOL     OW 8873   4.594   5.838   2.422  0.0000  0.0000  0.0000
 1017SOL    HW1 8874   4.670   5.780   2.430  0.0000  0.0000  0.0000
 1017SOL    HW2 8875   4.567   5.855   2.513  0.0000  0.0000  0.0000
 1017SOL     MW 8876   4.600   5.833   2.435  0.0000  0.0000  0.0000
 1018SOL     OW 8877   0.228   4.649   5.652  0.0000  0.0000  0.0000
 1018SOL    HW1 8878   0.273   4.691   5.725  0.0000  0.0000  0.0000
 1018SOL    HW2 8879   0.294   4.592   5.612  0.0000  0.0000  0.0000
 1018SOL     MW 8880   0.242   4.647   5.657  0.0000  0.0000  0.0000
 1019SOL     OW 8881   0.557   4.525   5.251  0.0000  0.0000  0.0000
 1019SOL    HW1 8882   0.500   4.540   5.325  0.0000  0.0000  0.0000
 1019SOL    HW2 8883   0.577   4.613   5.218  0.0000  0.0000  0.0000
 1019SOL     MW 8884   0.552   4.539   5.256  0.0000  0.0000  0.0000
 1020SOL     OW 8885   0.208   3.489   1.975  0.0000  0.0000  0.0000
 1020SOL    HW1 8886   0.162   3.501   2.057  0.0000  0.0000  0.0000
 1020SOL    HW2 8887   0.289   3.443   1.999  0.0000  0.0000  0.0000
 1020SOL     MW 8888   0.213   3.484   1.989  0.0000  0.0000  0.0000
 1021SOL     OW 8889   0.908   3.886   5.940  0.0000  0.0000  0.0000
 1021SOL    HW1 8890   0.867   3.842   6.015  0.0000  0.0000  0.0000
 1021SOL    HW2 8891   0.925   3.815   5.877  0.0000  0.0000  0.0000
 1021SOL     MW 8892   0.905   3.871   5.941  0.0000  0.0000  0.0000
 1022SOL     OW 8893   0.167   2.609   1.611  0.0000  0.0000  0.0000
 1022SOL    HW1 8894   0.138   2.586   1.699  0.0000  0.0000  0.0000
 1022SOL    HW2 8895   0.237   2.673   1.624  0.0000  0.0000  0.0000
 1022SOL     MW 8896   0.173   2.614   1.624  0.0000  0.0000  0.0000
 1023SOL     OW 8897   3.072   4.563   5.876  0.0000  0.0000  0.0000
 1023SOL    HW1 8898   3.147   4.508   5.898  0.0000  0.0000  0.0000
 1023SOL    HW2 8899   3.013   4.553   5.951  0.0000  0.0000  0.0000
 1023SOL     MW 8900   3.074   4.555   5.889  0.0000  0.0000  0.0000
 1024SOL     OW 8901   0.938   2.728   1.662  0.0000  0.0000  0.0000
 1024SOL    HW1 8902   0.844   2.710   1.659  0.0000  0.0000  0.0000
 1024SOL    HW2 8903   0.955   2.750   1.754  0.0000  0.0000  0.0000
 1024SOL     MW 8904   0.928   2.729   1.674  0.0000  0.0000  0.0000
 1025SOL     OW 8905   2.569   6.407   6.001  0.0000  0.0000  0.0000
 1025SOL    HW1 8906   2.480   6.433   6.025  0.0000  0.0000  0.0000
 1025SOL    HW2 8907   2.598   6.474   5.939  0.0000  0.0000  0.0000
 1025SOL     MW 8908   2.561   6.419   5.996  0.0000  0.0000  0.0000
 1026SOL     OW 8909   2.481   5.275   1.754  0.0000  0.0000  0.0000
 1026SOL    HW1 8910   2.406   5.215   1.761  0.0000  0.0000  0.0000
 1026SOL    HW2 8911   2.485   5.297   1.661  0.0000  0.0000  0.0000
 1026SOL     MW 8912   2.471   5.270   1.743  0.0000  0.0000  0.0000
 1027SOL     OW 8913   4.625   6.736   6.321  0.0000  0.0000  0.0000
 1027SOL    HW1 8914   4.656   6.757   6.409  0.0000  0.0000  0.0000
 1027SOL    HW2 8915   4.542   6.690   6.336  0.0000  0.0000  0.0000
 1027SOL     MW 8916   4.618   6.732   6.334  0.0000  0.0000  0.0000
 1028SOL     OW 8917   2.863   6.104   6.228  0.0000  0.0000  0.0000
 1028SOL    HW1 8918   2.820   6.189   6.238  0.0000  0.0000  0.0000
 1028SOL    HW2 8919   2.936   6.121   6.169  0.0000  0.0000  0.0000
 1028SOL     MW 8920   2.867   6.118   6.222  0.0000  0.0000  0.0000
 1029SOL     OW 8921   2.823   5.479   1.616  0.0000  0.0000  0.0000
 1029SOL    HW1 8922   2.767   5.553   1.593  0.0000  0.0000  0.0000
 1029SOL    HW2 8923   2.795   5.455   1.705  0.0000  0.0000  0.0000
 1029SOL     MW 8924   2.812   5.486   1.625  0.0000  0.0000  0.0000
 1030SOL     OW 8925   0.297   6.958   6.147  0.0000  0.0000  0.0000
 1030SOL    HW1 8926   0.348   7.007   6.212  0.0000  0.0000  0.0000
 1030SOL    HW2 8927   0.329   6.868   6.155  0.0000  0.0000  0.0000
 1030SOL     MW 8928   0.308   6.952   6.157  0.0000  0.0000  0.0000
 1031SOL     OW 8929   4.645   3.125   6.175  0.0000  0.0000  0.0000
 1031SOL    HW1 8930   4.627   3.209   6.218  0.0000  0.0000  0.0000
 1031SOL    HW2 8931   4.735   3.133   6.144  0.0000  0.0000  0.0000
 1031SOL     MW 8932   4.655   3.137   6.177  0.0000  0.0000  0.0000
 1032SOL     OW 8933   0.536   3.601   5.991  0.0000  0.0000  0.0000
 1032SOL    HW1 8934   0.543   3.694   5.972  0.0000  0.0000  0.0000
 1032SOL    HW2 8935   0.621   3.564   5.965  0.0000  0.0000  0.0000
 1032SOL     MW 8936   0.548   3.608   5.985  0.0000  0.0000  0.0000
 1033SOL     OW 8937   4.083   6.052   5.781  0.0000  0.0000  0.0000
 1033SOL    HW1 8938   4.036   6.119   5.831  0.0000  0.0000  0.0000
 1033SOL    HW2 8939   4.068   5.971   5.831  0.0000  0.0000  0.0000
 1033SOL     MW 8940   4.075   6.050   5.794  0.0000  0.0000  0.0000
 1034SOL     OW 8941   3.598   6.385   1.687  0.0000  0.0000  0.0000
 1034SOL    HW1 8942   3.605   6.290   1.680  0.0000  0.0000  0.0000
 1034SOL    HW2 8943   3.684   6.413   1.722  0.0000  0.0000  0.0000
 1034SOL     MW 8944   3.610   6.377   1.691  0.0000  0.0000  0.0000
 1035SOL     OW 8945   2.554   2.852   4.222  0.0000  0.0000  0.0000
 1035SOL    HW1 8946   2.515   2.939   4.223  0.0000  0.0000  0.0000
 1035SOL    HW2 8947   2.605   2.848   4.141  0.0000  0.0000  0.0000
 1035SOL     MW 8948   2.555   2.863   4.211  0.0000  0.0000  0.0000
 1036SOL     OW 8949   4.314   6.424   4.985  0.0000  0.0000  0.0000
 1036SOL    HW1 8950   4.220   6.437   4.978  0.0000  0.0000  0.0000
 1036SOL    HW2 8951   4.325   6.374   5.066  0.0000  0.0000  0.0000
 1036SOL     MW 8952   4.303   6.419   4.995  0.0000  0.0000  0.0000
 1037SOL     OW 8953   1.988   6.498   1.872  0.0000  0.0000  0.0000
 1037SOL    HW1 8954   1.913   6.470   1.821  0.0000  0.0000  0.0000
 1037SOL    HW2 8955   1.966   6.587   1.901  0.0000  0.0000  0.0000
 1037SOL     MW 8956   1.975   6.506   1.869  0.0000  0.0000  0.0000
 1038SOL     OW 8957   1.762   4.118   6.100  0.0000  0.0000  0.0000
 1038SOL    HW1 8958   1.721   4.205   6.098  0.0000  0.0000  0.0000
 1038SOL    HW2 8959   1.856   4.136   6.100  0.0000  0.0000  0.0000
 1038SOL     MW 8960   1.769   4.132   6.100  0.0000  0.0000  0.0000
 1039SOL     OW 8961   0.440   3.759   1.670  0.0000  0.0000  0.0000
 1039SOL    HW1 8962   0.519   3.726   1.627  0.0000  0.0000  0.0000
 1039SOL    HW2 8963   0.381   3.685   1.672  0.0000  0.0000  0.0000
 1039SOL     MW 8964   0.443   3.745   1.664  0.0000  0.0000  0.0000
 1040SOL     OW 8965   1.317   4.430   2.120  0.0000  0.0000  0.0000
 1040SOL    HW1 8966   1.329   4.451   2.212  0.0000  0.0000  0.0000
 1040SOL    HW2 8967   1.284   4.512   2.081  0.0000  0.0000  0.0000
 1040SOL     MW 8968   1.314   4.444   2.127  0.0000  0.0000  0.0000
 1041SOL     OW 8969   1.056   5.124   1.760  0.0000  0.0000  0.0000
 1041SOL    HW1 8970   0.985   5.109   1.823  0.0000  0.0000  0.0000
 1041SOL    HW2 8971   1.056   5.045   1.705  0.0000  0.0000  0.0000
 1041SOL     MW 8972   1.047   5.112   1.761  0.0000  0.0000  0.0000
 1042SOL     OW 8973   3.462   6.608   6.066  0.0000  0.0000  0.0000
 1042SOL    HW1 8974   3.436   6.663   6.140  0.0000  0.0000  0.0000
 1042SOL    HW2 8975   3.455   6.519   6.099  0.0000  0.0000  0.0000
 1042SOL     MW 8976   3.457   6.604   6.080  0.0000  0.0000  0.0000
 1043SOL     OW 8977   1.595   3.966   1.687  0.0000  0.0000  0.0000
 1043SOL    HW1 8978   1.550   4.036   1.639  0.0000  0.0000  0.0000
 1043SOL    HW2 8979   1.685   3.968   1.654  0.0000  0.0000  0.0000
 1043SOL     MW 8980   1.601   3.975   1.676  0.0000  0.0000  0.0000
 1044SOL     OW 8981   0.263   2.595   1.877  0.0000  0.0000  0.0000
 1044SOL    HW1 8982   0.329   2.534   1.910  0.0000  0.0000  0.0000
 1044SOL    HW2 8983   0.195   2.596   1.945  0.0000  0.0000  0.0000
 1044SOL     MW 8984   0.262   2.587   1.891  0.0000  0.0000  0.0000
 1045SOL     OW 8985   3.177   6.909   1.910  0.0000  0.0000  0.0000
 1045SOL    HW1 8986   3.087   6.900   1.943  0.0000  0.0000  0.0000
 1045SOL    HW2 8987   3.194   6.827   1.864  0.0000  0.0000  0.0000
 1045SOL     MW 8988   3.167   6.897   1.909  0.0000  0.0000  0.0000
 1046SOL     OW 8989   3.162   2.866   2.077  0.0000  0.0000  0.0000
 1046SOL    HW1 8990   3.255   2.873   2.054  0.0000  0.0000  0.0000
 1046SOL    HW2 8991   3.148   2.773   2.093  0.0000  0.0000  0.0000
 1046SOL     MW 8992   3.173   2.855   2.076  0.0000  0.0000  0.0000
 1047SOL     OW 8993   0.701   4.319   6.088  0.0000  0.0000  0.0000
 1047SOL    HW1 8994   0.656   4.331   6.004  0.0000  0.0000  0.0000
 1047SOL    HW2 8995   0.686   4.227   6.109  0.0000  0.0000  0.0000
 1047SOL     MW 8996   0.693   4.308   6.080  0.0000  0.0000  0.0000
 1048SOL     OW 8997   3.367   6.945   1.546  0.0000  0.0000  0.0000
 1048SOL    HW1 8998   3.298   6.995   1.589  0.0000  0.0000  0.0000
 1048SOL    HW2 8999   3.332   6.856   1.541  0.0000  0.0000  0.0000
 1048SOL     MW 9000   3.353   6.940   1.551  0.0000  0.0000  0.0000
 1049SOL     OW 9001   3.678   6.117   6.283  0.0000  0.0000  0.0000
 1049SOL    HW1 9002   3.694   6.025   6.304  0.0000  0.0000  0.0000
 1049SOL    HW2 9003   3.663   6.159   6.368  0.0000  0.0000  0.0000
 1049SOL     MW 9004   3.678   6.111   6.297  0.0000  0.0000  0.0000
 1050SOL     OW 9005   1.283   3.587   3.476  0.0000  0.0000  0.0000
 1050SOL    HW1 9006   1.232   3.532   3.416  0.0000  0.0000  0.0000
 1050SOL    HW2 9007   1.295   3.669   3.430  0.0000  0.0000  0.0000
 1050SOL     MW 9008   1.278   3.590   3.462  0.0000  0.0000  0.0000
 1051SOL     OW 9009   3.420   6.342   6.161  0.0000  0.0000  0.0000
 1051SOL    HW1 9010   3.514   6.338   6.142  0.0000  0.0000  0.0000
 1051SOL    HW2 9011   3.403   6.265   6.215  0.0000  0.0000  0.0000
 1051SOL     MW 9012   3.430   6.332   6.166  0.0000  0.0000  0.0000
 1052SOL     OW 9013   0.621   6.574   1.650  0.0000  0.0000  0.0000
 1052SOL    HW1 9014   0.543   6.525   1.679  0.0000  0.0000  0.0000
 1052SOL    HW2 9015   0.690   6.547   1.711  0.0000  0.0000  0.0000
 1052SOL     MW 9016   0.619   6.564   1.662  0.0000  0.0000  0.0000
 1053SOL     OW 9017   1.151   5.107   2.061  0.0000  0.0000  0.0000
 1053SOL    HW1 9018   1.198   5.104   1.978  0.0000  0.0000  0.0000
 1053SOL    HW2 9019   1.120   5.018   2.075  0.0000  0.0000  0.0000
 1053SOL     MW 9020   1.153   5.095   2.052  0.0000  0.0000  0.0000
 1054SOL     OW 9021   0.300   3.045   4.065  0.0000  0.0000  0.0000
 1054SOL    HW1 9022   0.294   2.959   4.024  0.0000  0.0000  0.0000
 1054SOL    HW2 9023   0.215   3.086   4.047  0.0000  0.0000  0.0000
 1054SOL     MW 9024   0.288   3.039   4.057  0.0000  0.0000  0.0000
 1055SOL     OW 9025   1.273   3.555   6.134  0.0000  0.0000  0.0000
 1055SOL    HW1 9026   1.227   3.590   6.210  0.0000  0.0000  0.0000
 1055SOL    HW2 9027   1.205   3.546   6.067  0.0000  0.0000  0.0000
 1055SOL     MW 9028   1.258   3.559   6.135  0.0000  0.0000  0.0000
 1056SOL     OW 9029   0.124   6.331   1.656  0.0000  0.0000  0.0000
 1056SOL    HW1 9030   0.136   6.236   1.655  0.0000  0.0000  0.0000
 1056SOL    HW2 9031   0.063   6.348   1.584  0.0000  0.0000  0.0000
 1056SOL     MW 9032   0.118   6.321   1.646  0.0000  0.0000  0.0000
 1057SOL     OW 9033   4.240   3.070   5.969  0.0000  0.0000  0.0000
 1057SOL    HW1 9034   4.179   3.123   5.917  0.0000  0.0000  0.0000
 1057SOL    HW2 9035   4.190   3.048   6.048  0.0000  0.0000  0.0000
 1057SOL     MW 9036   4.225   3.074   5.972  0.0000  0.0000  0.0000
 1058SOL     OW 9037   1.146   7.142   6.396  0.0000  0.0000  0.0000
 1058SOL    HW1 9038   1.051   7.148   6.380  0.0000  0.0000  0.0000
 1058SOL    HW2 9039   1.186   7.177   6.316  0.0000  0.0000  0.0000
 1058SOL     MW 9040   1.139   7.148   6.383  0.0000  0.0000  0.0000
 1059SOL     OW 9041   1.503   4.152   6.451  0.0000  0.0000  0.0000
 1059SOL    HW1 9042   1.593   4.121   6.462  0.0000  0.0000  0.0000
 1059SOL    HW2 9043   1.454   4.074   6.424  0.0000  0.0000  0.0000
 1059SOL     MW 9044   1.508   4.138   6.449  0.0000  0.0000  0.0000
 1060SOL     OW 9045   4.322   7.164   6.033  0.0000  0.0000  0.0000
 1060SOL    HW1 9046   4.361   7.251   6.025  0.0000  0.0000  0.0000
 1060SOL    HW2 9047   4.329   7.128   5.945  0.0000  0.0000  0.0000
 1060SOL     MW 9048   4.328   7.171   6.020  0.0000  0.0000  0.0000
 1061SOL     OW 9049   3.928   6.274   6.352  0.0000  0.0000  0.0000
 1061SOL    HW1 9050   3.943   6.211   6.281  0.0000  0.0000  0.0000
 1061SOL    HW2 9051   3.893   6.352   6.308  0.0000  0.0000  0.0000
 1061SOL     MW 9052   3.926   6.276   6.337  0.0000  0.0000  0.0000
 1062SOL     OW 9053   1.555   3.426   2.334  0.0000  0.0000  0.0000
 1062SOL    HW1 9054   1.520   3.515   2.338  0.0000  0.0000  0.0000
 1062SOL    HW2 9055   1.648   3.437   2.317  0.0000  0.0000  0.0000
 1062SOL     MW 9056   1.563   3.439   2.333  0.0000  0.0000  0.0000
 1063SOL     OW 9057   1.317   4.891   5.009  0.0000  0.0000  0.0000
 1063SOL    HW1 9058   1.369   4.811   5.018  0.0000  0.0000  0.0000
 1063SOL    HW2 9059   1.360   4.940   4.939  0.0000  0.0000  0.0000
 1063SOL     MW 9060   1.329   4.887   5.001  0.0000  0.0000  0.0000
 1064SOL     OW 9061   1.649   5.873   1.607  0.0000  0.0000  0.0000
 1064SOL    HW1 9062   1.724   5.912   1.651  0.0000  0.0000  0.0000
 1064SOL    HW2 9063   1.641   5.922   1.525  0.0000  0.0000  0.0000
 1064SOL     MW 9064   1.658   5.884   1.602  0.0000  0.0000  0.0000
 1065SOL     OW 9065   2.650   3.356   2.221  0.0000  0.0000  0.0000
 1065SOL    HW1 9066   2.635   3.307   2.302  0.0000  0.0000  0.0000
 1065SOL    HW2 9067   2.628   3.446   2.243  0.0000  0.0000  0.0000
 1065SOL     MW 9068   2.645   3.361   2.234  0.0000  0.0000  0.0000
 1066SOL     OW 9069   0.176   3.412   2.418  0.0000  0.0000  0.0000
 1066SOL    HW1 9070   0.142   3.446   2.335  0.0000  0.0000  0.0000
 1066SOL    HW2 9071   0.147   3.320   2.420  0.0000  0.0000  0.0000
 1066SOL     MW 9072   0.168   3.404   2.407  0.0000  0.0000  0.0000
 1067SOL     OW 9073   0.960   4.011   2.166  0.0000  0.0000  0.0000
 1067SOL    HW1 9074   0.915   4.093   2.145  0.0000  0.0000  0.0000
 1067SOL    HW2 9075   0.941   3.996   2.259  0.0000  0.0000  0.0000
 1067SOL     MW 9076   0.952   4.020   2.176  0.0000  0.0000  0.0000
 1068SOL     OW 9077   2.688   5.122   1.818  0.0000  0.0000  0.0000
 1068SOL    HW1 9078   2.607   5.172   1.816  0.0000  0.0000  0.0000
 1068SOL    HW2 9079   2.746   5.166   1.756  0.0000  0.0000  0.0000
 1068SOL     MW 9080   2.685   5.134   1.810  0.0000  0.0000  0.0000
 1069SOL     OW 9081   1.209   4.762   6.303  0.0000  0.0000  0.0000
 1069SOL    HW1 9082   1.145   4.756   6.231  0.0000  0.0000  0.0000
 1069SOL    HW2 9083   1.217   4.856   6.319  0.0000  0.0000  0.0000
 1069SOL     MW 9084   1.201   4.774   6.295  0.0000  0.0000  0.0000
 1070SOL     OW 9085   1.582   4.077   1.928  0.0000  0.0000  0.0000
 1070SOL    HW1 9086   1.589   4.042   1.840  0.0000  0.0000  0.0000
 1070SOL    HW2 9087   1.518   4.021   1.971  0.0000  0.0000  0.0000
 1070SOL     MW 9088   1.575   4.065   1.922  0.0000  0.0000  0.0000
 1071SOL     OW 9089   0.627   3.834   5.868  0.0000  0.0000  0.0000
 1071SOL    HW1 9090   0.666   3.793   5.791  0.0000  0.0000  0.0000
 1071SOL    HW2 9091   0.697   3.891   5.902  0.0000  0.0000  0.0000
 1071SOL     MW 9092   0.642   3.836   5.862  0.0000  0.0000  0.0000
 1072SOL     OW 9093   0.620   4.394   1.822  0.0000  0.0000  0.0000
 1072SOL    HW1 9094   0.591   4.437   1.903  0.0000  0.0000  0.0000
 1072SOL    HW2 9095   0.544   4.341   1.796  0.0000  0.0000  0.0000
 1072SOL     MW 9096   0.606   4.393   1.829  0.0000  0.0000  0.0000
 1073SOL     OW 9097   2.666   4.841   1.768  0.0000  0.0000  0.0000
 1073SOL    HW1 9098   2.673   4.930   1.733  0.0000  0.0000  0.0000
 1073SOL    HW2 9099   2.614   4.851   1.848  0.0000  0.0000  0.0000
 1073SOL     MW 9100   2.660   4.854   1.774  0.0000  0.0000  0.0000
 1074SOL     OW 9101   3.079   6.109   6.055  0.0000  0.0000  0.0000
 1074SOL    HW1 9102   3.133   6.182   6.086  0.0000  0.0000  0.0000
 1074SOL    HW2 9103   3.121   6.031   6.090  0.0000  0.0000  0.0000
 1074SOL     MW 9104   3.091   6.108   6.064  0.0000  0.0000  0.0000
 1075SOL     OW 9105   0.198   4.034   1.606  0.0000  0.0000  0.0000
 1075SOL    HW1 9106   0.270   3.994   1.558  0.0000  0.0000  0.0000
 1075SOL    HW2 9107   0.137   3.962   1.623  0.0000  0.0000  0.0000
 1075SOL     MW 9108   0.199   4.019   1.602  0.0000  0.0000  0.0000
 1076SOL     OW 9109   0.887   2.990   1.609  0.0000  0.0000  0.0000
 1076SOL    HW1 9110   0.899   2.895   1.605  0.0000  0.0000  0.0000
 1076SOL    HW2 9111   0.815   3.003   1.670  0.0000  0.0000  0.0000
 1076SOL     MW 9112   0.879   2.979   1.617  0.0000  0.0000  0.0000
 1077SOL     OW 9113   1.138   5.538   1.871  0.0000  0.0000  0.0000
 1077SOL    HW1 9114   1.072   5.543   1.940  0.0000  0.0000  0.0000
 1077SOL    HW2 9115   1.129   5.620   1.823  0.0000  0.0000  0.0000
 1077SOL     MW 9116   1.128   5.549   1.874  0.0000  0.0000  0.0000
 1078SOL     OW 9117   3.310   6.727   4.585  0.0000  0.0000  0.0000
 1078SOL    HW1 9118   3.272   6.765   4.505  0.0000  0.0000  0.0000
 1078SOL    HW2 9119   3.261   6.768   4.656  0.0000  0.0000  0.0000
 1078SOL     MW 9120   3.298   6.737   4.584  0.0000  0.0000  0.0000
 1079SOL     OW 9121   4.267   6.611   5.540  0.0000  0.0000  0.0000
 1079SOL    HW1 9122   4.286   6.626   5.447  0.0000  0.0000  0.0000
 1079SOL    HW2 9123   4.178   6.642   5.552  0.0000  0.0000  0.0000
 1079SOL     MW 9124   4.258   6.617   5.529  0.0000  0.0000  0.0000
 1080SOL     OW 9125   1.031   3.213   6.004  0.0000  0.0000  0.0000
 1080SOL    HW1 9126   1.042   3.124   5.971  0.0000  0.0000  0.0000
 1080SOL    HW2 9127   1.082   3.214   6.085  0.0000  0.0000  0.0000
 1080SOL     MW 9128   1.039   3.202   6.011  0.0000  0.0000  0.0000
 1081SOL     OW 9129   3.814   6.483   6.226  0.0000  0.0000  0.0000
 1081SOL    HW1 9130   3.851   6.552   6.170  0.0000  0.0000  0.0000
 1081SOL    HW2 9131   3.758   6.433   6.167  0.0000  0.0000  0.0000
 1081SOL     MW 9132   3.812   6.486   6.211  0.0000  0.0000  0.0000
 1082SOL     OW 9133   2.639   5.962   2.099  0.0000  0.0000  0.0000
 1082SOL    HW1 9134   2.641   6.035   2.037  0.0000  0.0000  0.0000
 1082SOL    HW2 9135   2.573   5.987   2.164  0.0000  0.0000  0.0000
 1082SOL     MW 9136   2.631   5.975   2.099  0.0000  0.0000  0.0000
 1083SOL     OW 9137   1.597   3.179   3.879  0.0000  0.0000  0.0000
 1083SOL    HW1 9138   1.598   3.223   3.964  0.0000  0.0000  0.0000
 1083SOL    HW2 9139   1.619   3.088   3.899  0.0000  0.0000  0.0000
 1083SOL     MW 9140   1.600   3.173   3.893  0.0000  0.0000  0.0000
 1084SOL     OW 9141   4.256   7.174   3.207  0.0000  0.0000  0.0000
 1084SOL    HW1 9142   4.254   7.264   3.176  0.0000  0.0000  0.0000
 1084SOL    HW2 9143   4.180   7.132   3.165  0.0000  0.0000  0.0000
 1084SOL     MW 9144   4.245   7.180   3.197  0.0000  0.0000  0.0000
 1085SOL     OW 9145   1.419   3.705   1.679  0.0000  0.0000  0.0000
 1085SOL    HW1 9146   1.375   3.682   1.597  0.0000  0.0000  0.0000
 1085SOL    HW2 9147   1.470   3.782   1.658  0.0000  0.0000  0.0000
 1085SOL     MW 9148   1.420   3.712   1.665  0.0000  0.0000  0.0000
 1086SOL     OW 9149   3.985   6.439   4.988  0.0000  0.0000  0.0000
 1086SOL    HW1 9150   3.925   6.366   5.005  0.0000  0.0000  0.0000
 1086SOL    HW2 9151   3.999   6.437   4.894  0.0000  0.0000  0.0000
 1086SOL     MW 9152   3.979   6.429   4.978  0.0000  0.0000  0.0000
 1087SOL     OW 9153   4.205   4.492   2.153  0.0000  0.0000  0.0000
 1087SOL    HW1 9154   4.194   4.465   2.244  0.0000  0.0000  0.0000
 1087SOL    HW2 9155   4.146   4.567   2.143  0.0000  0.0000  0.0000
 1087SOL     MW 9156   4.195   4.498   2.164  0.0000  0.0000  0.0000
 1088SOL     OW 9157   3.701   3.034   2.653  0.0000  0.0000  0.0000
 1088SOL    HW1 9158   3.658   3.073   2.729  0.0000  0.0000  0.0000
 1088SOL    HW2 9159   3.645   2.960   2.629  0.0000  0.0000  0.0000
 1088SOL     MW 9160   3.688   3.029   2.660  0.0000  0.0000  0.0000
 1089SOL     OW 9161   1.487   3.384   1.741  0.0000  0.0000  0.0000
 1089SOL    HW1 9162   1.487   3.457   1.803  0.0000  0.0000  0.0000
 1089SOL    HW2 9163   1.497   3.306   1.796  0.0000  0.0000  0.0000
 1089SOL     MW 9164   1.489   3.383   1.757  0.0000  0.0000  0.0000
 1090SOL     OW 9165   1.178   5.019   6.394  0.0000  0.0000  0.0000
 1090SOL    HW1 9166   1.106   5.034   6.455  0.0000  0.0000  0.0000
 1090SOL    HW2 9167   1.246   5.081   6.421  0.0000  0.0000  0.0000
 1090SOL     MW 9168   1.177   5.029   6.405  0.0000  0.0000  0.0000
 1091SOL     OW 9169   3.019   4.713   6.482  0.0000  0.0000  0.0000
 1091SOL    HW1 9170   2.947   4.776   6.488  0.0000  0.0000  0.0000
 1091SOL    HW2 9171   2.979   4.629   6.506  0.0000  0.0000  0.0000
 1091SOL     MW 9172   3.004   4.711   6.486  0.0000  0.0000  0.0000
 1092SOL     OW 9173   4.505   5.778   5.680  0.0000  0.0000  0.0000
 1092SOL    HW1 9174   4.415   5.762   5.706  0.0000  0.0000  0.0000
 1092SOL    HW2 9175   4.517   5.872   5.691  0.0000  0.0000  0.0000
 1092SOL     MW 9176   4.495   5.788   5.685  0.0000  0.0000  0.0000
 1093SOL     OW 9177   3.951   3.675   1.710  0.0000  0.0000  0.0000
 1093SOL    HW1 9178   3.886   3.738   1.679  0.0000  0.0000  0.0000
 1093SOL    HW2 9179   3.902   3.615   1.766  0.0000  0.0000  0.0000
 1093SOL     MW 9180   3.936   3.676   1.713  0.0000  0.0000  0.0000
 1094SOL     OW 9181   3.403   4.916   1.696  0.0000  0.0000  0.0000
 1094SOL    HW1 9182   3.454   4.955   1.768  0.0000  0.0000  0.0000
 1094SOL    HW2 9183   3.324   4.969   1.691  0.0000  0.0000  0.0000
 1094SOL     MW 9184   3.399   4.928   1.705  0.0000  0.0000  0.0000
 1095SOL     OW 9185   3.155   4.813   5.849  0.0000  0.0000  0.0000
 1095SOL    HW1 9186   3.119   4.725   5.852  0.0000  0.0000  0.0000
 1095SOL    HW2 9187   3.193   4.821   5.761  0.0000  0.0000  0.0000
 1095SOL     MW 9188   3.156   4.803   5.837  0.0000  0.0000  0.0000
 1096SOL     OW 9189   2.189   6.080   5.532  0.0000  0.0000  0.0000
 1096SOL    HW1 9190   2.270   6.122   5.504  0.0000  0.0000  0.0000
 1096SOL    HW2 9191   2.130   6.152   5.554  0.0000  0.0000  0.0000
 1096SOL     MW 9192   2.192   6.095   5.531  0.0000  0.0000  0.0000
 1097SOL     OW 9193   4.548   6.404   4.371  0.0000  0.0000  0.0000
 1097SOL    HW1 9194   4.612   6.351   4.322  0.0000  0.0000  0.0000
 1097SOL    HW2 9195   4.480   6.341   4.396  0.0000  0.0000  0.0000
 1097SOL     MW 9196   4.547   6.389   4.368  0.0000  0.0000  0.0000
 1098SOL     OW 9197   3.503   6.454   2.448  0.0000  0.0000  0.0000
 1098SOL    HW1 9198   3.506   6.549   2.437  0.0000  0.0000  0.0000
 1098SOL    HW2 9199   3.595   6.428   2.460  0.0000  0.0000  0.0000
 1098SOL     MW 9200   3.516   6.463   2.448  0.0000  0.0000  0.0000
 1099SOL     OW 9201   1.629   6.220   5.922  0.0000  0.0000  0.0000
 1099SOL    HW1 9202   1.556   6.175   5.878  0.0000  0.0000  0.0000
 1099SOL    HW2 9203   1.697   6.225   5.855  0.0000  0.0000  0.0000
 1099SOL     MW 9204   1.628   6.214   5.907  0.0000  0.0000  0.0000
 1100SOL     OW 9205   4.392   6.385   5.975  0.0000  0.0000  0.0000
 1100SOL    HW1 9206   4.481   6.350   5.969  0.0000  0.0000  0.0000
 1100SOL    HW2 9207   4.402   6.480   5.969  0.0000  0.0000  0.0000
 1100SOL     MW 9208   4.405   6.393   5.973  0.0000  0.0000  0.0000
 1101SOL     OW 9209   0.521   6.566   2.229  0.0000  0.0000  0.0000
 1101SOL    HW1 9210   0.606   6.602   2.202  0.0000  0.0000  0.0000
 1101SOL    HW2 9211   0.483   6.530   2.148  0.0000  0.0000  0.0000
 1101SOL     MW 9212   0.527   6.566   2.215  0.0000  0.0000  0.0000
 1102SOL     OW 9213   4.145   3.201   1.876  0.0000  0.0000  0.0000
 1102SOL    HW1 9214   4.089   3.259   1.928  0.0000  0.0000  0.0000
 1102SOL    HW2 9215   4.231   3.243   1.878  0.0000  0.0000  0.0000
 1102SOL     MW 9216   4.149   3.214   1.883  0.0000  0.0000  0.0000
 1103SOL     OW 9217   3.832   6.984   1.965  0.0000  0.0000  0.0000
 1103SOL    HW1 9218   3.743   6.954   1.948  0.0000  0.0000  0.0000
 1103SOL    HW2 9219   3.879   6.966   1.884  0.0000  0.0000  0.0000
 1103SOL     MW 9220   3.826   6.977   1.952  0.0000  0.0000  0.0000
 1104SOL     OW 9221   0.825   3.439   1.813  0.0000  0.0000  0.0000
 1104SOL    HW1 9222   0.800   3.363   1.865  0.0000  0.0000  0.0000
 1104SOL    HW2 9223   0.816   3.513   1.873  0.0000  0.0000  0.0000
 1104SOL     MW 9224   0.820   3.439   1.828  0.0000  0.0000  0.0000
 1105SOL     OW 9225   0.034   3.787   6.135  0.0000  0.0000  0.0000
 1105SOL    HW1 9226   0.041   3.790   6.040  0.0000  0.0000  0.0000
 1105SOL    HW2 9227  -0.060   3.798   6.153  0.0000  0.0000  0.0000
 1105SOL     MW 9228   0.022   3.789   6.125  0.0000  0.0000  0.0000
 1106SOL     OW 9229   2.965   6.542   1.819  0.0000  0.0000  0.0000
 1106SOL    HW1 9230   2.949   6.470   1.880  0.0000  0.0000  0.0000
 1106SOL    HW2 9231   2.966   6.500   1.732  0.0000  0.0000  0.0000
 1106SOL     MW 9232   2.963   6.527   1.815  0.0000  0.0000  0.0000
 1107SOL     OW 9233   3.751   5.554   6.122  0.0000  0.0000  0.0000
 1107SOL    HW1 9234   3.842   5.582   6.113  0.0000  0.0000  0.0000
 1107SOL    HW2 9235   3.700   5.632   6.101  0.0000  0.0000  0.0000
 1107SOL     MW 9236   3.756   5.568   6.118  0.0000  0.0000  0.0000
 1108SOL     OW 9237   3.800   4.070   1.680  0.0000  0.0000  0.0000
 1108SOL    HW1 9238   3.781   4.095   1.771  0.0000  0.0000  0.0000
 1108SOL    HW2 9239   3.760   3.983   1.670  0.0000  0.0000  0.0000
 1108SOL     MW 9240   3.792   4.062   1.691  0.0000  0.0000  0.0000
 1109SOL     OW 9241   0.827   5.674   5.805  0.0000  0.0000  0.0000
 1109SOL    HW1 9242   0.855   5.765   5.820  0.0000  0.0000  0.0000
 1109SOL    HW2 9243   0.732   5.677   5.816  0.0000  0.0000  0.0000
 1109SOL     MW 9244   0.818   5.687   5.809  0.0000  0.0000  0.0000
 1110SOL     OW 9245   3.309   3.599   1.652  0.0000  0.0000  0.0000
 1110SOL    HW1 9246   3.310   3.609   1.557  0.0000  0.0000  0.0000
 1110SOL    HW2 9247   3.379   3.657   1.683  0.0000  0.0000  0.0000
 1110SOL     MW 9248   3.319   3.608   1.644  0.0000  0.0000  0.0000
 1111SOL     OW 9249   4.316   3.289   6.137  0.0000  0.0000  0.0000
 1111SOL    HW1 9250   4.286   3.233   6.066  0.0000  0.0000  0.0000
 1111SOL    HW2 9251   4.274   3.373   6.121  0.0000  0.0000  0.0000
 1111SOL     MW 9252   4.306   3.293   6.126  0.0000  0.0000  0.0000
 1112SOL     OW 9253   3.873   6.726   5.293  0.0000  0.0000  0.0000
 1112SOL    HW1 9254   3.917   6.646   5.264  0.0000  0.0000  0.0000
 1112SOL    HW2 9255   3.820   6.699   5.368  0.0000  0.0000  0.0000
 1112SOL     MW 9256   3.872   6.712   5.299  0.0000  0.0000  0.0000
 1113SOL     OW 9257   0.685   2.670   1.659  0.0000  0.0000  0.0000
 1113SOL    HW1 9258   0.689   2.575   1.667  0.0000  0.0000  0.0000
 1113SOL    HW2 9259   0.675   2.686   1.565  0.0000  0.0000  0.0000
 1113SOL     MW 9260   0.684   2.660   1.648  0.0000  0.0000  0.0000
 1114SOL     OW 9261   1.182   4.246   1.940  0.0000  0.0000  0.0000
 1114SOL    HW1 9262   1.093   4.278   1.955  0.0000  0.0000  0.0000
 1114SOL    HW2 9263   1.233   4.281   2.014  0.0000  0.0000  0.0000
 1114SOL     MW 9264   1.177   4.255   1.952  0.0000  0.0000  0.0000
 1115SOL     OW 9265   0.161   6.083   6.241  0.0000  0.0000  0.0000
 1115SOL    HW1 9266   0.132   6.009   6.294  0.0000  0.0000  0.0000
 1115SOL    HW2 9267   0.152   6.159   6.298  0.0000  0.0000  0.0000
 1115SOL     MW 9268   0.156   6.083   6.255  0.0000  0.0000  0.0000
 1116SOL     OW 9269   0.380   4.831   1.620  0.0000  0.0000  0.0000
 1116SOL    HW1 9270   0.456   4.799   1.668  0.0000  0.0000  0.0000
 1116SOL    HW2 9271   0.310   4.838   1.685  0.0000  0.0000  0.0000
 1116SOL     MW 9272   0.381   4.828   1.635  0.0000  0.0000  0.0000
 1117SOL     OW 9273   1.103   3.842   1.835  0.0000  0.0000  0.0000
 1117SOL    HW1 9274   1.134   3.874   1.920  0.0000  0.0000  0.0000
 1117SOL    HW2 9275   1.105   3.746   1.843  0.0000  0.0000  0.0000
 1117SOL     MW 9276   1.107   3.833   1.847  0.0000  0.0000  0.0000
 1118SOL     OW 9277   1.459   5.929   1.829  0.0000  0.0000  0.0000
 1118SOL    HW1 9278   1.537   5.915   1.773  0.0000  0.0000  0.0000
 1118SOL    HW2 9279   1.462   5.857   1.892  0.0000  0.0000  0.0000
 1118SOL     MW 9280   1.470   5.917   1.830  0.0000  0.0000  0.0000
 1119SOL     OW 9281   1.548   7.047   3.949  0.0000  0.0000  0.0000
 1119SOL    HW1 9282   1.536   6.952   3.958  0.0000  0.0000  0.0000
 1119SOL    HW2 9283   1.461   7.080   3.926  0.0000  0.0000  0.0000
 1119SOL     MW 9284   1.535   7.038   3.947  0.0000  0.0000  0.0000
 1120SOL     OW 9285   2.849   5.550   5.815  0.0000  0.0000  0.0000
 1120SOL    HW1 9286   2.891   5.596   5.742  0.0000  0.0000  0.0000
 1120SOL    HW2 9287   2.921   5.528   5.874  0.0000  0.0000  0.0000
 1120SOL     MW 9288   2.864   5.553   5.813  0.0000  0.0000  0.0000
 1121SOL     OW 9289   4.633   7.042   1.897  0.0000  0.0000  0.0000
 1121SOL    HW1 9290   4.685   6.977   1.849  0.0000  0.0000  0.0000
 1121SOL    HW2 9291   4.564   7.067   1.835  0.0000  0.0000  0.0000
 1121SOL     MW 9292   4.631   7.036   1.882  0.0000  0.0000  0.0000
 1122SOL     OW 9293   1.023   5.380   6.447  0.0000  0.0000  0.0000
 1122SOL    HW1 9294   1.045   5.410   6.358  0.0000  0.0000  0.0000
 1122SOL    HW2 9295   0.931   5.355   6.441  0.0000  0.0000  0.0000
 1122SOL     MW 9296   1.014   5.381   6.434  0.0000  0.0000  0.0000
 1123SOL     OW 9297   3.656   7.157   2.474  0.0000  0.0000  0.0000
 1123SOL    HW1 9298   3.745   7.180   2.500  0.0000  0.0000  0.0000
 1123SOL    HW2 9299   3.634   7.220   2.405  0.0000  0.0000  0.0000
 1123SOL     MW 9300   3.665   7.169   2.469  0.0000  0.0000  0.0000
 1124SOL     OW 9301   3.552   4.710   1.616  0.0000  0.0000  0.0000
 1124SOL    HW1 9302   3.558   4.677   1.705  0.0000  0.0000  0.0000
 1124SOL    HW2 9303   3.500   4.791   1.624  0.0000  0.0000  0.0000
 1124SOL     MW 9304   3.546   4.717   1.629  0.0000  0.0000  0.0000
 1125SOL     OW 9305   1.746   6.535   2.141  0.0000  0.0000  0.0000
 1125SOL    HW1 9306   1.680   6.473   2.171  0.0000  0.0000  0.0000
 1125SOL    HW2 9307   1.830   6.492   2.158  0.0000  0.0000  0.0000
 1125SOL     MW 9308   1.749   6.521   2.147  0.0000  0.0000  0.0000
 1126SOL     OW 9309   4.136   6.344   6.085  0.0000  0.0000  0.0000
 1126SOL    HW1 9310   4.216   6.360   6.036  0.0000  0.0000  0.0000
 1126SOL    HW2 9311   4.165   6.298   6.164  0.0000  0.0000  0.0000
 1126SOL     MW 9312   4.150   6.340   6.089  0.0000  0.0000  0.0000
 1127SOL     OW 9313   3.951   6.208   5.942  0.0000  0.0000  0.0000
 1127SOL    HW1 9314   4.010   6.275   5.976  0.0000  0.0000  0.0000
 1127SOL    HW2 9315   3.894   6.255   5.881  0.0000  0.0000  0.0000
 1127SOL     MW 9316   3.951   6.223   5.938  0.0000  0.0000  0.0000
 1128SOL     OW 9317   3.750   2.772   1.931  0.0000  0.0000  0.0000
 1128SOL    HW1 9318   3.707   2.698   1.974  0.0000  0.0000  0.0000
 1128SOL    HW2 9319   3.745   2.844   1.994  0.0000  0.0000  0.0000
 1128SOL     MW 9320   3.744   2.772   1.945  0.0000  0.0000  0.0000
 1129SOL     OW 9321   0.482   6.860   1.693  0.0000  0.0000  0.0000
 1129SOL    HW1 9322   0.414   6.908   1.647  0.0000  0.0000  0.0000
 1129SOL    HW2 9323   0.548   6.840   1.626  0.0000  0.0000  0.0000
 1129SOL     MW 9324   0.482   6.864   1.678  0.0000  0.0000  0.0000
 1130SOL     OW 9325   3.901   6.843   5.769  0.0000  0.0000  0.0000
 1130SOL    HW1 9326   3.997   6.842   5.774  0.0000  0.0000  0.0000
 1130SOL    HW2 9327   3.882   6.862   5.677  0.0000  0.0000  0.0000
 1130SOL     MW 9328   3.911   6.845   5.757  0.0000  0.0000  0.0000
 1131SOL     OW 9329   1.080   7.116   1.758  0.0000  0.0000  0.0000
 1131SOL    HW1 9330   1.052   7.193   1.709  0.0000  0.0000  0.0000
 1131SOL    HW2 9331   1.165   7.142   1.796  0.0000  0.0000  0.0000
 1131SOL     MW 9332   1.088   7.130   1.757  0.0000  0.0000  0.0000
 1132SOL     OW 9333   4.094   7.015   3.552  0.0000  0.0000  0.0000
 1132SOL    HW1 9334   4.102   7.106   3.521  0.0000  0.0000  0.0000
 1132SOL    HW2 9335   4.062   7.023   3.641  0.0000  0.0000  0.0000
 1132SOL     MW 9336   4.091   7.028   3.559  0.0000  0.0000  0.0000
 1133SOL     OW 9337   2.936   4.192   6.471  0.0000  0.0000  0.0000
 1133SOL    HW1 9338   2.944   4.278   6.511  0.0000  0.0000  0.0000
 1133SOL    HW2 9339   2.854   4.195   6.422  0.0000  0.0000  0.0000
 1133SOL     MW 9340   2.926   4.203   6.470  0.0000  0.0000  0.0000
 1134SOL     OW 9341   2.521   4.912   5.929  0.0000  0.0000  0.0000
 1134SOL    HW1 9342   2.445   4.966   5.907  0.0000  0.0000  0.0000
 1134SOL    HW2 9343   2.546   4.870   5.847  0.0000  0.0000  0.0000
 1134SOL     MW 9344   2.515   4.913   5.915  0.0000  0.0000  0.0000
 1135SOL     OW 9345   4.427   2.801   1.929  0.0000  0.0000  0.0000
 1135SOL    HW1 9346   4.355   2.850   1.968  0.0000  0.0000  0.0000
 1135SOL    HW2 9347   4.404   2.710   1.941  0.0000  0.0000  0.0000
 1135SOL     MW 9348   4.414   2.796   1.936  0.0000  0.0000  0.0000
 1136SOL     OW 9349   3.590   3.969   6.380  0.0000  0.0000  0.0000
 1136SOL    HW1 9350   3.545   3.895   6.339  0.0000  0.0000  0.0000
 1136SOL    HW2 9351   3.590   3.947   6.473  0.0000  0.0000  0.0000
 1136SOL     MW 9352   3.584   3.956   6.387  0.0000  0.0000  0.0000
 1137SOL     OW 9353   4.207   2.788   3.129  0.0000  0.0000  0.0000
 1137SOL    HW1 9354   4.238   2.837   3.205  0.0000  0.0000  0.0000
 1137SOL    HW2 9355   4.197   2.854   3.061  0.0000  0.0000  0.0000
 1137SOL     MW 9356   4.210   2.803   3.130  0.0000  0.0000  0.0000
 1138SOL     OW 9357   1.282   3.390   2.516  0.0000  0.0000  0.0000
 1138SOL    HW1 9358   1.296   3.468   2.570  0.0000  0.0000  0.0000
 1138SOL    HW2 9359   1.361   3.337   2.530  0.0000  0.0000  0.0000
 1138SOL     MW 9360   1.294   3.394   2.525  0.0000  0.0000  0.0000
 1139SOL     OW 9361   1.621   6.668   2.367  0.0000  0.0000  0.0000
 1139SOL    HW1 9362   1.697   6.719   2.395  0.0000  0.0000  0.0000
 1139SOL    HW2 9363   1.648   6.627   2.285  0.0000  0.0000  0.0000
 1139SOL     MW 9364   1.635   6.669   2.360  0.0000  0.0000  0.0000
 1140SOL     OW 9365   0.833   3.896   1.838  0.0000  0.0000  0.0000
 1140SOL    HW1 9366   0.783   3.832   1.889  0.0000  0.0000  0.0000
 1140SOL    HW2 9367   0.925   3.876   1.858  0.0000  0.0000  0.0000
 1140SOL     MW 9368   0.838   3.885   1.847  0.0000  0.0000  0.0000
 1141SOL     OW 9369   2.986   6.011   6.461  0.0000  0.0000  0.0000
 1141SOL    HW1 9370   3.065   5.959   6.448  0.0000  0.0000  0.0000
 1141SOL    HW2 9371   2.952   6.026   6.373  0.0000  0.0000  0.0000
 1141SOL     MW 9372   2.992   6.006   6.448  0.0000  0.0000  0.0000
 1142SOL     OW 9373   4.254   5.444   1.705  0.0000  0.0000  0.0000
 1142SOL    HW1 9374   4.234   5.501   1.631  0.0000  0.0000  0.0000
 1142SOL    HW2 9375   4.176   5.450   1.761  0.0000  0.0000  0.0000
 1142SOL     MW 9376   4.241   5.453   1.703  0.0000  0.0000  0.0000
 1143SOL     OW 9377   1.175   5.904   6.019  0.0000  0.0000  0.0000
 1143SOL    HW1 9378   1.242   5.870   6.077  0.0000  0.0000  0.0000
 1143SOL    HW2 9379   1.135   5.976   6.067  0.0000  0.0000  0.0000
 1143SOL     MW 9380   1.178   5.909   6.033  0.0000  0.0000  0.0000
 1144SOL     OW 9381   3.392   3.305   1.868  0.0000  0.0000  0.0000
 1144SOL    HW1 9382   3.403   3.216   1.834  0.0000  0.0000  0.0000
 1144SOL    HW2 9383   3.349   3.293   1.953  0.0000  0.0000  0.0000
 1144SOL     MW 9384   3.388   3.291   1.875  0.0000  0.0000  0.0000
 1145SOL     OW 9385   1.608   2.858   3.887  0.0000  0.0000  0.0000
 1145SOL    HW1 9386   1.627   2.804   3.964  0.0000  0.0000  0.0000
 1145SOL    HW2 9387   1.683   2.846   3.830  0.0000  0.0000  0.0000
 1145SOL     MW 9388   1.620   2.849   3.890  0.0000  0.0000  0.0000
 1146SOL     OW 9389   1.486   2.651   3.750  0.0000  0.0000  0.0000
 1146SOL    HW1 9390   1.526   2.699   3.823  0.0000  0.0000  0.0000
 1146SOL    HW2 9391   1.508   2.703   3.673  0.0000  0.0000  0.0000
 1146SOL     MW 9392   1.494   2.665   3.750  0.0000  0.0000  0.0000
 1147SOL     OW 9393   2.835   5.978   2.298  0.0000  0.0000  0.0000
 1147SOL    HW1 9394   2.810   6.071   2.301  0.0000  0.0000  0.0000
 1147SOL    HW2 9395   2.789   5.943   2.222  0.0000  0.0000  0.0000
 1147SOL     MW 9396   2.826   5.986   2.289  0.0000  0.0000  0.0000
 1148SOL     OW 9397   0.801   6.592   2.178  0.0000  0.0000  0.0000
 1148SOL    HW1 9398   0.842   6.629   2.256  0.0000  0.0000  0.0000
 1148SOL    HW2 9399   0.796   6.664   2.116  0.0000  0.0000  0.0000
 1148SOL     MW 9400   0.806   6.606   2.180  0.0000  0.0000  0.0000
 1149SOL     OW 9401   2.068   4.294   6.460  0.0000  0.0000  0.0000
 1149SOL    HW1 9402   2.045   4.329   6.374  0.0000  0.0000  0.0000
 1149SOL    HW2 9403   2.099   4.370   6.509  0.0000  0.0000  0.0000
 1149SOL     MW 9404   2.069   4.309   6.455  0.0000  0.0000  0.0000
 1150SOL     OW 9405   2.108   2.673   2.428  0.0000  0.0000  0.0000
 1150SOL    HW1 9406   2.095   2.663   2.334  0.0000  0.0000  0.0000
 1150SOL    HW2 9407   2.055   2.750   2.452  0.0000  0.0000  0.0000
 1150SOL     MW 9408   2.099   2.682   2.419  0.0000  0.0000  0.0000
 1151SOL     OW 9409   3.659   5.966   5.978  0.0000  0.0000  0.0000
 1151SOL    HW1 9410   3.746   5.937   5.950  0.0000  0.0000  0.0000
 1151SOL    HW2 9411   3.624   5.892   6.028  0.0000  0.0000  0.0000
 1151SOL     MW 9412   3.666   5.952   5.981  0.0000  0.0000  0.0000
 1152SOL     OW 9413   4.364   5.784   1.696  0.0000  0.0000  0.0000
 1152SOL    HW1 9414   4.269   5.777   1.687  0.0000  0.0000  0.0000
 1152SOL    HW2 9415   4.397   5.697   1.672  0.0000  0.0000  0.0000
 1152SOL     MW 9416   4.355   5.772   1.691  0.0000  0.0000  0.0000
 1153SOL     OW 9417   1.497   3.606   1.931  0.0000  0.0000  0.0000
 1153SOL    HW1 9418   1.441   3.636   1.859  0.0000  0.0000  0.0000
 1153SOL    HW2 9419   1.436   3.584   2.001  0.0000  0.0000  0.0000
 1153SOL     MW 9420   1.481   3.607   1.931  0.0000  0.0000  0.0000
 1154SOL     OW 9421   3.725   5.087   2.106  0.0000  0.0000  0.0000
 1154SOL    HW1 9422   3.799   5.097   2.046  0.0000  0.0000  0.0000
 1154SOL    HW2 9423   3.704   5.177   2.132  0.0000  0.0000  0.0000
 1154SOL     MW 9424   3.732   5.101   2.102  0.0000  0.0000  0.0000
 1155SOL     OW 9425   3.410   4.740   6.197  0.0000  0.0000  0.0000
 1155SOL    HW1 9426   3.418   4.704   6.108  0.0000  0.0000  0.0000
 1155SOL    HW2 9427   3.334   4.695   6.234  0.0000  0.0000  0.0000
 1155SOL     MW 9428   3.401   4.729   6.190  0.0000  0.0000  0.0000
 1156SOL     OW 9429   0.864   5.530   1.812  0.0000  0.0000  0.0000
 1156SOL    HW1 9430   0.826   5.445   1.789  0.0000  0.0000  0.0000
 1156SOL    HW2 9431   0.958   5.516   1.810  0.0000  0.0000  0.0000
 1156SOL     MW 9432   0.871   5.517   1.809  0.0000  0.0000  0.0000
 1157SOL     OW 9433   0.468   2.884   6.241  0.0000  0.0000  0.0000
 1157SOL    HW1 9434   0.423   2.896   6.324  0.0000  0.0000  0.0000
 1157SOL    HW2 9435   0.401   2.845   6.183  0.0000  0.0000  0.0000
 1157SOL     MW 9436   0.453   2.880   6.244  0.0000  0.0000  0.0000
 1158SOL     OW 9437   0.652   4.967   4.954  0.0000  0.0000  0.0000
 1158SOL    HW1 9438   0.627   4.965   4.861  0.0000  0.0000  0.0000
 1158SOL    HW2 9439   0.703   5.047   4.964  0.0000  0.0000  0.0000
 1158SOL     MW 9440   0.655   4.977   4.943  0.0000  0.0000  0.0000
 1159SOL     OW 9441   4.586   2.885   1.697  0.0000  0.0000  0.0000
 1159SOL    HW1 9442   4.543   2.864   1.780  0.0000  0.0000  0.0000
 1159SOL    HW2 9443   4.573   2.979   1.687  0.0000  0.0000  0.0000
 1159SOL     MW 9444   4.579   2.895   1.706  0.0000  0.0000  0.0000
 1160SOL     OW 9445   1.593   6.388   2.515  0.0000  0.0000  0.0000
 1160SOL    HW1 9446   1.579   6.481   2.499  0.0000  0.0000  0.0000
 1160SOL    HW2 9447   1.595   6.348   2.428  0.0000  0.0000  0.0000
 1160SOL     MW 9448   1.592   6.395   2.501  0.0000  0.0000  0.0000
 1161SOL     OW 9449   4.058   5.805   5.894  0.0000  0.0000  0.0000
 1161SOL    HW1 9450   4.053   5.772   5.983  0.0000  0.0000  0.0000
 1161SOL    HW2 9451   4.023   5.734   5.840  0.0000  0.0000  0.0000
 1161SOL     MW 9452   4.052   5.791   5.898  0.0000  0.0000  0.0000
 1162SOL     OW 9453   1.834   5.456   2.197  0.0000  0.0000  0.0000
 1162SOL    HW1 9454   1.812   5.520   2.130  0.0000  0.0000  0.0000
 1162SOL    HW2 9455   1.853   5.376   2.149  0.0000  0.0000  0.0000
 1162SOL     MW 9456   1.834   5.454   2.182  0.0000  0.0000  0.0000
 1163SOL     OW 9457   1.349   6.124   5.912  0.0000  0.0000  0.0000
 1163SOL    HW1 9458   1.299   6.042   5.906  0.0000  0.0000  0.0000
 1163SOL    HW2 9459   1.322   6.162   5.995  0.0000  0.0000  0.0000
 1163SOL     MW 9460   1.339   6.118   5.922  0.0000  0.0000  0.0000
 1164SOL     OW 9461   0.782   5.829   2.910  0.0000  0.0000  0.0000
 1164SOL    HW1 9462   0.749   5.752   2.957  0.0000  0.0000  0.0000
 1164SOL    HW2 9463   0.769   5.902   2.970  0.0000  0.0000  0.0000
 1164SOL     MW 9464   0.776   5.828   2.924  0.0000  0.0000  0.0000
 1165SOL     OW 9465   3.672   6.310   6.071  0.0000  0.0000  0.0000
 1165SOL    HW1 9466   3.641   6.273   5.989  0.0000  0.0000  0.0000
 1165SOL    HW2 9467   3.683   6.235   6.129  0.0000  0.0000  0.0000
 1165SOL     MW 9468   3.669   6.295   6.068  0.0000  0.0000  0.0000
 1166SOL     OW 9469   3.176   3.058   6.371  0.0000  0.0000  0.0000
 1166SOL    HW1 9470   3.131   3.133   6.331  0.0000  0.0000  0.0000
 1166SOL    HW2 9471   3.115   2.985   6.360  0.0000  0.0000  0.0000
 1166SOL     MW 9472   3.162   3.058   6.364  0.0000  0.0000  0.0000
 1167SOL     OW 9473   3.973   3.336   2.042  0.0000  0.0000  0.0000
 1167SOL    HW1 9474   3.914   3.262   2.035  0.0000  0.0000  0.0000
 1167SOL    HW2 9475   4.005   3.333   2.132  0.0000  0.0000  0.0000
 1167SOL     MW 9476   3.970   3.326   2.053  0.0000  0.0000  0.0000
 1168SOL     OW 9477   1.640   6.609   1.918  0.0000  0.0000  0.0000
 1168SOL    HW1 9478   1.676   6.587   2.003  0.0000  0.0000  0.0000
 1168SOL    HW2 9479   1.554   6.566   1.916  0.0000  0.0000  0.0000
 1168SOL     MW 9480   1.633   6.600   1.929  0.0000  0.0000  0.0000
 1169SOL     OW 9481   0.551   4.902   4.689  0.0000  0.0000  0.0000
 1169SOL    HW1 9482   0.489   4.975   4.694  0.0000  0.0000  0.0000
 1169SOL    HW2 9483   0.503   4.827   4.723  0.0000  0.0000  0.0000
 1169SOL     MW 9484   0.537   4.902   4.694  0.0000  0.0000  0.0000
 1170SOL     OW 9485   3.855   2.677   6.164  0.0000  0.0000  0.0000
 1170SOL    HW1 9486   3.825   2.722   6.085  0.0000  0.0000  0.0000
 1170SOL    HW2 9487   3.776   2.637   6.200  0.0000  0.0000  0.0000
 1170SOL     MW 9488   3.841   2.678   6.159  0.0000  0.0000  0.0000
 1171SOL     OW 9489   2.489   6.750   2.313  0.0000  0.0000  0.0000
 1171SOL    HW1 9490   2.567   6.769   2.365  0.0000  0.0000  0.0000
 1171SOL    HW2 9491   2.421   6.807   2.351  0.0000  0.0000  0.0000
 1171SOL     MW 9492   2.490   6.760   2.325  0.0000  0.0000  0.0000
 1172SOL     OW 9493   1.530   6.171   3.149  0.0000  0.0000  0.0000
 1172SOL    HW1 9494   1.613   6.135   3.117  0.0000  0.0000  0.0000
 1172SOL    HW2 9495   1.557   6.240   3.210  0.0000  0.0000  0.0000
 1172SOL     MW 9496   1.545   6.176   3.153  0.0000  0.0000  0.0000
 1173SOL     OW 9497   4.629   3.063   5.898  0.0000  0.0000  0.0000
 1173SOL    HW1 9498   4.687   3.123   5.851  0.0000  0.0000  0.0000
 1173SOL    HW2 9499   4.622   3.100   5.986  0.0000  0.0000  0.0000
 1173SOL     MW 9500   4.636   3.076   5.903  0.0000  0.0000  0.0000
 1174SOL     OW 9501   3.804   4.879   1.800  0.0000  0.0000  0.0000
 1174SOL    HW1 9502   3.890   4.842   1.823  0.0000  0.0000  0.0000
 1174SOL    HW2 9503   3.797   4.866   1.705  0.0000  0.0000  0.0000
 1174SOL     MW 9504   3.815   4.872   1.790  0.0000  0.0000  0.0000
 1175SOL     OW 9505   4.499   3.680   2.657  0.0000  0.0000  0.0000
 1175SOL    HW1 9506   4.441   3.611   2.625  0.0000  0.0000  0.0000
 1175SOL    HW2 9507   4.587   3.643   2.651  0.0000  0.0000  0.0000
 1175SOL     MW 9508   4.503   3.666   2.652  0.0000  0.0000  0.0000
 1176SOL     OW 9509   2.001   3.039   5.989  0.0000  0.0000  0.0000
 1176SOL    HW1 9510   1.977   3.132   5.989  0.0000  0.0000  0.0000
 1176SOL    HW2 9511   2.096   3.039   5.984  0.0000  0.0000  0.0000
 1176SOL     MW 9512   2.010   3.051   5.989  0.0000  0.0000  0.0000
 1177SOL     OW 9513   3.495   6.731   2.419  0.0000  0.0000  0.0000
 1177SOL    HW1 9514   3.558   6.794   2.383  0.0000  0.0000  0.0000
 1177SOL    HW2 9515   3.430   6.785   2.464  0.0000  0.0000  0.0000
 1177SOL     MW 9516   3.495   6.747   2.420  0.0000  0.0000  0.0000
 1178SOL     OW 9517   3.145   3.657   1.871  0.0000  0.0000  0.0000
 1178SOL    HW1 9518   3.097   3.574   1.870  0.0000  0.0000  0.0000
 1178SOL    HW2 9519   3.211   3.647   1.803  0.0000  0.0000  0.0000
 1178SOL     MW 9520   3.148   3.644   1.862  0.0000  0.0000  0.0000
 1179SOL     OW 9521   4.629   6.443   5.352  0.0000  0.0000  0.0000
 1179SOL    HW1 9522   4.604   6.528   5.318  0.0000  0.0000  0.0000
 1179SOL    HW2 9523   4.557   6.384   5.327  0.0000  0.0000  0.0000
 1179SOL     MW 9524   4.616   6.446   5.344  0.0000  0.0000  0.0000
 1180SOL     OW 9525   2.872   6.850   6.093  0.0000  0.0000  0.0000
 1180SOL    HW1 9526   2.867   6.806   6.178  0.0000  0.0000  0.0000
 1180SOL    HW2 9527   2.950   6.813   6.051  0.0000  0.0000  0.0000
 1180SOL     MW 9528   2.882   6.839   6.099  0.0000  0.0000  0.0000
 1181SOL     OW 9529   0.540   6.065   6.402  0.0000  0.0000  0.0000
 1181SOL    HW1 9530   0.478   6.088   6.332  0.0000  0.0000  0.0000
 1181SOL    HW2 9531   0.489   6.010   6.462  0.0000  0.0000  0.0000
 1181SOL     MW 9532   0.525   6.061   6.400  0.0000  0.0000  0.0000
 1182SOL     OW 9533   2.390   5.814   3.661  0.0000  0.0000  0.0000
 1182SOL    HW1 9534   2.422   5.902   3.642  0.0000  0.0000  0.0000
 1182SOL    HW2 9535   2.305   5.810   3.616  0.0000  0.0000  0.0000
 1182SOL     MW 9536   2.383   5.825   3.652  0.0000  0.0000  0.0000
 1183SOL     OW 9537   0.106   3.455   6.081  0.0000  0.0000  0.0000
 1183SOL    HW1 9538   0.134   3.380   6.029  0.0000  0.0000  0.0000
 1183SOL    HW2 9539   0.167   3.458   6.154  0.0000  0.0000  0.0000
 1183SOL     MW 9540   0.118   3.446   6.084  0.0000  0.0000  0.0000
 1184SOL     OW 9541   0.453   6.384   1.760  0.0000  0.0000  0.0000
 1184SOL    HW1 9542   0.424   6.374   1.851  0.0000  0.0000  0.0000
 1184SOL    HW2 9543   0.372   6.391   1.710  0.0000  0.0000  0.0000
 1184SOL     MW 9544   0.438   6.383   1.766  0.0000  0.0000  0.0000
 1185SOL     OW 9545   1.304   2.979   1.830  0.0000  0.0000  0.0000
 1185SOL    HW1 9546   1.372   3.042   1.855  0.0000  0.0000  0.0000
 1185SOL    HW2 9547   1.316   2.966   1.736  0.0000  0.0000  0.0000
 1185SOL     MW 9548   1.314   2.986   1.821  0.0000  0.0000  0.0000
 1186SOL     OW 9549   0.825   4.443   5.236  0.0000  0.0000  0.0000
 1186SOL    HW1 9550   0.739   4.478   5.261  0.0000  0.0000  0.0000
 1186SOL    HW2 9551   0.859   4.506   5.173  0.0000  0.0000  0.0000
 1186SOL     MW 9552   0.818   4.456   5.231  0.0000  0.0000  0.0000
 1187SOL     OW 9553   0.492   3.401   2.040  0.0000  0.0000  0.0000
 1187SOL    HW1 9554   0.527   3.482   2.005  0.0000  0.0000  0.0000
 1187SOL    HW2 9555   0.556   3.372   2.105  0.0000  0.0000  0.0000
 1187SOL     MW 9556   0.505   3.408   2.044  0.0000  0.0000  0.0000
 1188SOL     OW 9557   3.515   4.223   1.711  0.0000  0.0000  0.0000
 1188SOL    HW1 9558   3.608   4.207   1.693  0.0000  0.0000  0.0000
 1188SOL    HW2 9559   3.487   4.280   1.639  0.0000  0.0000  0.0000
 1188SOL     MW 9560   3.523   4.229   1.699  0.0000  0.0000  0.0000
 1189SOL     OW 9561   4.360   4.391   6.183  0.0000  0.0000  0.0000
 1189SOL    HW1 9562   4.446   4.431   6.195  0.0000  0.0000  0.0000
 1189SOL    HW2 9563   4.369   4.304   6.221  0.0000  0.0000  0.0000
 1189SOL     MW 9564   4.373   4.385   6.189  0.0000  0.0000  0.0000
 1190SOL     OW 9565   2.090   4.935   1.828  0.0000  0.0000  0.0000
 1190SOL    HW1 9566   2.047   4.902   1.749  0.0000  0.0000  0.0000
 1190SOL    HW2 9567   2.160   4.872   1.845  0.0000  0.0000  0.0000
 1190SOL     MW 9568   2.094   4.922   1.820  0.0000  0.0000  0.0000
 1191SOL     OW 9569   2.154   5.714   6.470  0.0000  0.0000  0.0000
 1191SOL    HW1 9570   2.152   5.649   6.399  0.0000  0.0000  0.0000
 1191SOL    HW2 9571   2.219   5.680   6.531  0.0000  0.0000  0.0000
 1191SOL     MW 9572   2.162   5.701   6.469  0.0000  0.0000  0.0000
 1192SOL     OW 9573   4.102   4.694   1.630  0.0000  0.0000  0.0000
 1192SOL    HW1 9574   4.037   4.741   1.578  0.0000  0.0000  0.0000
 1192SOL    HW2 9575   4.185   4.740   1.613  0.0000  0.0000  0.0000
 1192SOL     MW 9576   4.105   4.706   1.621  0.0000  0.0000  0.0000
 1193SOL     OW 9577   1.215   3.771   2.274  0.0000  0.0000  0.0000
 1193SOL    HW1 9578   1.128   3.753   2.310  0.0000  0.0000  0.0000
 1193SOL    HW2 9579   1.205   3.855   2.229  0.0000  0.0000  0.0000
 1193SOL     MW 9580   1.202   3.779   2.273  0.0000  0.0000  0.0000
 1194SOL     OW 9581   0.816   4.220   1.785  0.0000  0.0000  0.0000
 1194SOL    HW1 9582   0.778   4.133   1.794  0.0000  0.0000  0.0000
 1194SOL    HW2 9583   0.744   4.280   1.803  0.0000  0.0000  0.0000
 1194SOL     MW 9584   0.802   4.216   1.788  0.0000  0.0000  0.0000
 1195SOL     OW 9585   1.875   6.507   6.065  0.0000  0.0000  0.0000
 1195SOL    HW1 9586   1.922   6.480   6.144  0.0000  0.0000  0.0000
 1195SOL    HW2 9587   1.851   6.599   6.081  0.0000  0.0000  0.0000
 1195SOL     MW 9588   1.878   6.516   6.078  0.0000  0.0000  0.0000
 1196SOL     OW 9589   1.416   3.123   5.353  0.0000  0.0000  0.0000
 1196SOL    HW1 9590   1.325   3.124   5.324  0.0000  0.0000  0.0000
 1196SOL    HW2 9591   1.430   3.211   5.388  0.0000  0.0000  0.0000
 1196SOL     MW 9592   1.406   3.135   5.353  0.0000  0.0000  0.0000
 1197SOL     OW 9593   0.097   5.689   5.540  0.0000  0.0000  0.0000
 1197SOL    HW1 9594   0.009   5.721   5.562  0.0000  0.0000  0.0000
 1197SOL    HW2 9595   0.112   5.617   5.602  0.0000  0.0000  0.0000
 1197SOL     MW 9596   0.087   5.683   5.551  0.0000  0.0000  0.0000
 1198SOL     OW 9597   0.212   4.651   6.428  0.0000  0.0000  0.0000
 1198SOL    HW1 9598   0.139   4.638   6.489  0.0000  0.0000  0.0000
 1198SOL    HW2 9599   0.237   4.562   6.401  0.0000  0.0000  0.0000
 1198SOL     MW 9600   0.206   4.637   6.433  0.0000  0.0000  0.0000
 1199SOL     OW 9601   1.696   2.805   6.285  0.0000  0.0000  0.0000
 1199SOL    HW1 9602   1.746   2.778   6.361  0.0000  0.0000  0.0000
 1199SOL    HW2 9603   1.740   2.764   6.210  0.0000  0.0000  0.0000
 1199SOL     MW 9604   1.708   2.796   6.285  0.0000  0.0000  0.0000
 1200SOL     OW 9605   3.152   4.686   6.237  0.0000  0.0000  0.0000
 1200SOL    HW1 9606   3.141   4.774   6.201  0.0000  0.0000  0.0000
 1200SOL    HW2 9607   3.121   4.693   6.327  0.0000  0.0000  0.0000
 1200SOL     MW 9608   3.146   4.699   6.244  0.0000  0.0000  0.0000
 1201SOL     OW 9609   3.807   2.838   5.940  0.0000  0.0000  0.0000
 1201SOL    HW1 9610   3.749   2.786   5.884  0.0000  0.0000  0.0000
 1201SOL    HW2 9611   3.892   2.834   5.897  0.0000  0.0000  0.0000
 1201SOL     MW 9612   3.811   2.831   5.927  0.0000  0.0000  0.0000
 1202SOL     OW 9613   3.506   5.053   1.959  0.0000  0.0000  0.0000
 1202SOL    HW1 9614   3.594   5.051   1.996  0.0000  0.0000  0.0000
 1202SOL    HW2 9615   3.460   4.980   2.000  0.0000  0.0000  0.0000
 1202SOL     MW 9616   3.512   5.043   1.969  0.0000  0.0000  0.0000
 1203SOL     OW 9617   1.859   3.345   2.071  0.0000  0.0000  0.0000
 1203SOL    HW1 9618   1.951   3.366   2.086  0.0000  0.0000  0.0000
 1203SOL    HW2 9619   1.822   3.425   2.035  0.0000  0.0000  0.0000
 1203SOL     MW 9620   1.866   3.359   2.068  0.0000  0.0000  0.0000
 1204SOL     OW 9621   1.926   6.759   1.909  0.0000  0.0000  0.0000
 1204SOL    HW1 9622   1.948   6.807   1.829  0.0000  0.0000  0.0000
 1204SOL    HW2 9623   1.859   6.812   1.951  0.0000  0.0000  0.0000
 1204SOL     MW 9624   1.920   6.772   1.904  0.0000  0.0000  0.0000
 1205SOL     OW 9625   0.599   3.399   6.405  0.0000  0.0000  0.0000
 1205SOL    HW1 9626   0.573   3.453   6.331  0.0000  0.0000  0.0000
 1205SOL    HW2 9627   0.541   3.323   6.401  0.0000  0.0000  0.0000
 1205SOL     MW 9628   0.588   3.396   6.394  0.0000  0.0000  0.0000
 1206SOL     OW 9629   4.364   5.453   6.259  0.0000  0.0000  0.0000
 1206SOL    HW1 9630   4.383   5.421   6.171  0.0000  0.0000  0.0000
 1206SOL    HW2 9631   4.409   5.537   6.265  0.0000  0.0000  0.0000
 1206SOL     MW 9632   4.372   5.460   6.249  0.0000  0.0000  0.0000
 1207SOL     OW 9633   4.542   4.844   3.078  0.0000  0.0000  0.0000
 1207SOL    HW1 9634   4.475   4.848   3.010  0.0000  0.0000  0.0000
 1207SOL    HW2 9635   4.602   4.916   3.056  0.0000  0.0000  0.0000
 1207SOL     MW 9636   4.541   4.854   3.066  0.0000  0.0000  0.0000
 1208SOL     OW 9637   2.190   5.393   5.486  0.0000  0.0000  0.0000
 1208SOL    HW1 9638   2.174   5.423   5.396  0.0000  0.0000  0.0000
 1208SOL    HW2 9639   2.264   5.446   5.516  0.0000  0.0000  0.0000
 1208SOL     MW 9640   2.198   5.404   5.478  0.0000  0.0000  0.0000
 1209SOL     OW 9641   2.543   7.196   2.193  0.0000  0.0000  0.0000
 1209SOL    HW1 9642   2.563   7.271   2.137  0.0000  0.0000  0.0000
 1209SOL    HW2 9643   2.470   7.225   2.247  0.0000  0.0000  0.0000
 1209SOL     MW 9644   2.536   7.210   2.192  0.0000  0.0000  0.0000
 1210SOL     OW 9645   2.284   3.864   6.497  0.0000  0.0000  0.0000
 1210SOL    HW1 9646   2.245   3.942   6.457  0.0000  0.0000  0.0000
 1210SOL    HW2 9647   2.355   3.840   6.437  0.0000  0.0000  0.0000
 1210SOL     MW 9648   2.288   3.871   6.484  0.0000  0.0000  0.0000
 1211SOL     OW 9649   4.010   4.047   1.975  0.0000  0.0000  0.0000
 1211SOL    HW1 9650   4.061   4.128   1.979  0.0000  0.0000  0.0000
 1211SOL    HW2 9651   3.921   4.076   1.954  0.0000  0.0000  0.0000
 1211SOL     MW 9652   4.005   4.062   1.973  0.0000  0.0000  0.0000
 1212SOL     OW 9653   1.934   3.299   6.022  0.0000  0.0000  0.0000
 1212SOL    HW1 9654   1.985   3.317   6.101  0.0000  0.0000  0.0000
 1212SOL    HW2 9655   1.847   3.334   6.041  0.0000  0.0000  0.0000
 1212SOL     MW 9656   1.929   3.306   6.035  0.0000  0.0000  0.0000
 1213SOL     OW 9657   4.610   4.501   6.249  0.0000  0.0000  0.0000
 1213SOL    HW1 9658   4.616   4.592   6.278  0.0000  0.0000  0.0000
 1213SOL    HW2 9659   4.604   4.451   6.330  0.0000  0.0000  0.0000
 1213SOL     MW 9660   4.610   4.507   6.263  0.0000  0.0000  0.0000
 1214SOL     OW 9661   1.597   4.320   2.099  0.0000  0.0000  0.0000
 1214SOL    HW1 9662   1.598   4.266   2.020  0.0000  0.0000  0.0000
 1214SOL    HW2 9663   1.509   4.359   2.100  0.0000  0.0000  0.0000
 1214SOL     MW 9664   1.585   4.318   2.089  0.0000  0.0000  0.0000
 1215SOL     OW 9665   2.722   2.646   6.273  0.0000  0.0000  0.0000
 1215SOL    HW1 9666   2.720   2.552   6.288  0.0000  0.0000  0.0000
 1215SOL    HW2 9667   2.745   2.684   6.358  0.0000  0.0000  0.0000
 1215SOL     MW 9668   2.724   2.639   6.286  0.0000  0.0000  0.0000
 1216SOL     OW 9669   4.433   6.009   2.243  0.0000  0.0000  0.0000
 1216SOL    HW1 9670   4.492   5.949   2.289  0.0000  0.0000  0.0000
 1216SOL    HW2 9671   4.371   5.952   2.198  0.0000  0.0000  0.0000
 1216SOL     MW 9672   4.433   5.994   2.243  0.0000  0.0000  0.0000
 1217SOL     OW 9673   4.080   3.136   5.412  0.0000  0.0000  0.0000
 1217SOL    HW1 9674   4.163   3.176   5.439  0.0000  0.0000  0.0000
 1217SOL    HW2 9675   4.043   3.101   5.493  0.0000  0.0000  0.0000
 1217SOL     MW 9676   4.086   3.137   5.426  0.0000  0.0000  0.0000
 1218SOL     OW 9677   1.058   6.317   5.508  0.0000  0.0000  0.0000
 1218SOL    HW1 9678   1.060   6.331   5.602  0.0000  0.0000  0.0000
 1218SOL    HW2 9679   0.965   6.304   5.488  0.0000  0.0000  0.0000
 1218SOL     MW 9680   1.046   6.317   5.518  0.0000  0.0000  0.0000
 1219SOL     OW 9681   4.201   7.200   2.020  0.0000  0.0000  0.0000
 1219SOL    HW1 9682   4.145   7.261   1.974  0.0000  0.0000  0.0000
 1219SOL    HW2 9683   4.220   7.131   1.956  0.0000  0.0000  0.0000
 1219SOL     MW 9684   4.196   7.199   2.006  0.0000  0.0000  0.0000
 1220SOL     OW 9685   0.972   2.778   1.925  0.0000  0.0000  0.0000
 1220SOL    HW1 9686   1.043   2.724   1.959  0.0000  0.0000  0.0000
 1220SOL    HW2 9687   0.896   2.756   1.978  0.0000  0.0000  0.0000
 1220SOL     MW 9688   0.971   2.768   1.936  0.0000  0.0000  0.0000
 1221SOL     OW 9689   4.170   6.400   6.450  0.0000  0.0000  0.0000
 1221SOL    HW1 9690   4.084   6.365   6.429  0.0000  0.0000  0.0000
 1221SOL    HW2 9691   4.230   6.326   6.439  0.0000  0.0000  0.0000
 1221SOL     MW 9692   4.167   6.385   6.446  0.0000  0.0000  0.0000
 1222SOL     OW 9693   3.831   3.534   1.913  0.0000  0.0000  0.0000
 1222SOL    HW1 9694   3.863   3.471   1.977  0.0000  0.0000  0.0000
 1222SOL    HW2 9695   3.757   3.489   1.871  0.0000  0.0000  0.0000
 1222SOL     MW 9696   3.825   3.520   1.915  0.0000  0.0000  0.0000
 1223SOL     OW 9697   0.731   4.986   6.405  0.0000  0.0000  0.0000
 1223SOL    HW1 9698   0.804   4.955   6.458  0.0000  0.0000  0.0000
 1223SOL    HW2 9699   0.655   4.938   6.439  0.0000  0.0000  0.0000
 1223SOL     MW 9700   0.730   4.975   6.417  0.0000  0.0000  0.0000
 1224SOL     OW 9701   0.590   2.610   1.945  0.0000  0.0000  0.0000
 1224SOL    HW1 9702   0.555   2.595   1.857  0.0000  0.0000  0.0000
 1224SOL    HW2 9703   0.534   2.558   2.003  0.0000  0.0000  0.0000
 1224SOL     MW 9704   0.578   2.601   1.941  0.0000  0.0000  0.0000
 1225SOL     OW 9705   0.434   4.777   6.505  0.0000  0.0000  0.0000
 1225SOL    HW1 9706   0.348   4.736   6.502  0.0000  0.0000  0.0000
 1225SOL    HW2 9707   0.424   4.858   6.454  0.0000  0.0000  0.0000
 1225SOL     MW 9708   0.422   4.782   6.498  0.0000  0.0000  0.0000
 1226SOL     OW 9709   2.548   6.616   6.270  0.0000  0.0000  0.0000
 1226SOL    HW1 9710   2.484   6.675   6.310  0.0000  0.0000  0.0000
 1226SOL    HW2 9711   2.569   6.657   6.186  0.0000  0.0000  0.0000
 1226SOL     MW 9712   2.542   6.629   6.264  0.0000  0.0000  0.0000
 1227SOL     OW 9713   0.828   4.870   4.643  0.0000  0.0000  0.0000
 1227SOL    HW1 9714   0.829   4.787   4.690  0.0000  0.0000  0.0000
 1227SOL    HW2 9715   0.737   4.898   4.644  0.0000  0.0000  0.0000
 1227SOL     MW 9716   0.816   4.863   4.650  0.0000  0.0000  0.0000
 1228SOL     OW 9717   1.481   3.535   5.968  0.0000  0.0000  0.0000
 1228SOL    HW1 9718   1.406   3.545   6.027  0.0000  0.0000  0.0000
 1228SOL    HW2 9719   1.490   3.621   5.926  0.0000  0.0000  0.0000
 1228SOL     MW 9720   1.472   3.548   5.970  0.0000  0.0000  0.0000
 1229SOL     OW 9721   3.190   5.282   6.011  0.0000  0.0000  0.0000
 1229SOL    HW1 9722   3.147   5.281   5.926  0.0000  0.0000  0.0000
 1229SOL    HW2 9723   3.137   5.224   6.065  0.0000  0.0000  0.0000
 1229SOL     MW 9724   3.178   5.274   6.007  0.0000  0.0000  0.0000
 1230SOL     OW 9725   4.607   2.653   4.982  0.0000  0.0000  0.0000
 1230SOL    HW1 9726   4.698   2.681   4.979  0.0000  0.0000  0.0000
 1230SOL    HW2 9727   4.604   2.586   5.050  0.0000  0.0000  0.0000
 1230SOL     MW 9728   4.618   2.648   4.990  0.0000  0.0000  0.0000
 1231SOL     OW 9729   3.443   4.432   6.215  0.0000  0.0000  0.0000
 1231SOL    HW1 9730   3.510   4.484   6.258  0.0000  0.0000  0.0000
 1231SOL    HW2 9731   3.482   4.346   6.203  0.0000  0.0000  0.0000
 1231SOL     MW 9732   3.457   4.428   6.219  0.0000  0.0000  0.0000
 1232SOL     OW 9733   0.413   6.647   5.878  0.0000  0.0000  0.0000
 1232SOL    HW1 9734   0.408   6.735   5.839  0.0000  0.0000  0.0000
 1232SOL    HW2 9735   0.504   6.639   5.908  0.0000  0.0000  0.0000
 1232SOL     MW 9736   0.424   6.658   5.877  0.0000  0.0000  0.0000
 1233SOL     OW 9737   4.432   3.785   1.767  0.0000  0.0000  0.0000
 1233SOL    HW1 9738   4.373   3.844   1.721  0.0000  0.0000  0.0000
 1233SOL    HW2 9739   4.389   3.768   1.851  0.0000  0.0000  0.0000
 1233SOL     MW 9740   4.418   3.790   1.772  0.0000  0.0000  0.0000
 1234SOL     OW 9741   1.999   2.787   4.944  0.0000  0.0000  0.0000
 1234SOL    HW1 9742   1.992   2.741   5.027  0.0000  0.0000  0.0000
 1234SOL    HW2 9743   1.954   2.731   4.881  0.0000  0.0000  0.0000
 1234SOL     MW 9744   1.992   2.773   4.946  0.0000  0.0000  0.0000
 1235SOL     OW 9745   3.796   5.880   6.354  0.0000  0.0000  0.0000
 1235SOL    HW1 9746   3.863   5.909   6.416  0.0000  0.0000  0.0000
 1235SOL    HW2 9747   3.741   5.820   6.404  0.0000  0.0000  0.0000
 1235SOL     MW 9748   3.797   5.876   6.369  0.0000  0.0000  0.0000
 1236SOL     OW 9749   2.623   6.173   5.854  0.0000  0.0000  0.0000
 1236SOL    HW1 9750   2.612   6.232   5.929  0.0000  0.0000  0.0000
 1236SOL    HW2 9751   2.711   6.138   5.863  0.0000  0.0000  0.0000
 1236SOL     MW 9752   2.633   6.177   5.865  0.0000  0.0000  0.0000
 1237SOL     OW 9753   4.584   5.260   2.615  0.0000  0.0000  0.0000
 1237SOL    HW1 9754   4.543   5.197   2.674  0.0000  0.0000  0.0000
 1237SOL    HW2 9755   4.531   5.339   2.624  0.0000  0.0000  0.0000
 1237SOL     MW 9756   4.572   5.263   2.624  0.0000  0.0000  0.0000
 1238SOL     OW 9757   1.182   4.648   2.023  0.0000  0.0000  0.0000
 1238SOL    HW1 9758   1.219   4.700   1.952  0.0000  0.0000  0.0000
 1238SOL    HW2 9759   1.140   4.711   2.080  0.0000  0.0000  0.0000
 1238SOL     MW 9760   1.182   4.663   2.021  0.0000  0.0000  0.0000
 1239SOL     OW 9761   1.838   3.600   3.636  0.0000  0.0000  0.0000
 1239SOL    HW1 9762   1.858   3.673   3.696  0.0000  0.0000  0.0000
 1239SOL    HW2 9763   1.758   3.562   3.672  0.0000  0.0000  0.0000
 1239SOL     MW 9764   1.830   3.605   3.649  0.0000  0.0000  0.0000
 1240SOL     OW 9765   2.425   6.267   2.077  0.0000  0.0000  0.0000
 1240SOL    HW1 9766   2.400   6.198   2.138  0.0000  0.0000  0.0000
 1240SOL    HW2 9767   2.342   6.303   2.047  0.0000  0.0000  0.0000
 1240SOL     MW 9768   2.411   6.262   2.081  0.0000  0.0000  0.0000
 1241SOL     OW 9769   4.352   3.461   2.563  0.0000  0.0000  0.0000
 1241SOL    HW1 9770   4.352   3.420   2.476  0.0000  0.0000  0.0000
 1241SOL    HW2 9771   4.289   3.410   2.614  0.0000  0.0000  0.0000
 1241SOL     MW 9772   4.344   3.449   2.558  0.0000  0.0000  0.0000
 1242SOL     OW 9773   3.067   4.177   1.776  0.0000  0.0000  0.0000
 1242SOL    HW1 9774   3.110   4.107   1.826  0.0000  0.0000  0.0000
 1242SOL    HW2 9775   3.111   4.257   1.804  0.0000  0.0000  0.0000
 1242SOL     MW 9776   3.078   4.178   1.787  0.0000  0.0000  0.0000
 1243SOL     OW 9777   1.414   6.467   1.919  0.0000  0.0000  0.0000
 1243SOL    HW1 9778   1.439   6.376   1.904  0.0000  0.0000  0.0000
 1243SOL    HW2 9779   1.353   6.487   1.848  0.0000  0.0000  0.0000
 1243SOL     MW 9780   1.409   6.458   1.908  0.0000  0.0000  0.0000
 1244SOL     OW 9781   4.434   7.098   1.716  0.0000  0.0000  0.0000
 1244SOL    HW1 9782   4.453   7.029   1.652  0.0000  0.0000  0.0000
 1244SOL    HW2 9783   4.354   7.069   1.759  0.0000  0.0000  0.0000
 1244SOL     MW 9784   4.426   7.085   1.713  0.0000  0.0000  0.0000
 1245SOL     OW 9785   2.052   2.757   5.886  0.0000  0.0000  0.0000
 1245SOL    HW1 9786   2.037   2.851   5.874  0.0000  0.0000  0.0000
 1245SOL    HW2 9787   2.077   2.749   5.978  0.0000  0.0000  0.0000
 1245SOL     MW 9788   2.054   2.769   5.897  0.0000  0.0000  0.0000
 1246SOL     OW 9789   0.910   3.016   2.402  0.0000  0.0000  0.0000
 1246SOL    HW1 9790   0.985   3.056   2.357  0.0000  0.0000  0.0000
 1246SOL    HW2 9791   0.883   2.945   2.344  0.0000  0.0000  0.0000
 1246SOL     MW 9792   0.917   3.012   2.388  0.0000  0.0000  0.0000
 1247SOL     OW 9793   1.479   5.497   6.364  0.0000  0.0000  0.0000
 1247SOL    HW1 9794   1.414   5.565   6.378  0.0000  0.0000  0.0000
 1247SOL    HW2 9795   1.509   5.473   6.452  0.0000  0.0000  0.0000
 1247SOL     MW 9796   1.475   5.503   6.377  0.0000  0.0000  0.0000
 1248SOL     OW 9797   2.839   3.210   2.062  0.0000  0.0000  0.0000
 1248SOL    HW1 9798   2.782   3.270   2.109  0.0000  0.0000  0.0000
 1248SOL    HW2 9799   2.838   3.241   1.972  0.0000  0.0000  0.0000
 1248SOL     MW 9800   2.832   3.222   2.057  0.0000  0.0000  0.0000
 1249SOL     OW 9801   3.557   2.879   2.481  0.0000  0.0000  0.0000
 1249SOL    HW1 9802   3.494   2.839   2.541  0.0000  0.0000  0.0000
 1249SOL    HW2 9803   3.563   2.817   2.408  0.0000  0.0000  0.0000
 1249SOL     MW 9804   3.549   2.866   2.479  0.0000  0.0000  0.0000
 1250SOL     OW 9805   2.899   3.216   1.773  0.0000  0.0000  0.0000
 1250SOL    HW1 9806   2.967   3.156   1.803  0.0000  0.0000  0.0000
 1250SOL    HW2 9807   2.944   3.299   1.761  0.0000  0.0000  0.0000
 1250SOL     MW 9808   2.914   3.219   1.775  0.0000  0.0000  0.0000
 1251SOL     OW 9809   2.929   7.080   5.963  0.0000  0.0000  0.0000
 1251SOL    HW1 9810   2.898   7.155   6.014  0.0000  0.0000  0.0000
 1251SOL    HW2 9811   2.919   7.005   6.022  0.0000  0.0000  0.0000
 1251SOL     MW 9812   2.924   7.080   5.978  0.0000  0.0000  0.0000
 1252SOL     OW 9813   0.707   3.741   5.608  0.0000  0.0000  0.0000
 1252SOL    HW1 9814   0.688   3.655   5.571  0.0000  0.0000  0.0000
 1252SOL    HW2 9815   0.798   3.735   5.639  0.0000  0.0000  0.0000
 1252SOL     MW 9816   0.716   3.729   5.607  0.0000  0.0000  0.0000
 1253SOL     OW 9817   2.768   6.922   2.233  0.0000  0.0000  0.0000
 1253SOL    HW1 9818   2.828   6.979   2.282  0.0000  0.0000  0.0000
 1253SOL    HW2 9819   2.688   6.974   2.224  0.0000  0.0000  0.0000
 1253SOL     MW 9820   2.766   6.937   2.238  0.0000  0.0000  0.0000
 1254SOL     OW 9821   3.400   5.412   6.325  0.0000  0.0000  0.0000
 1254SOL    HW1 9822   3.343   5.472   6.374  0.0000  0.0000  0.0000
 1254SOL    HW2 9823   3.359   5.326   6.337  0.0000  0.0000  0.0000
 1254SOL     MW 9824   3.387   5.408   6.333  0.0000  0.0000  0.0000
 1255SOL     OW 9825   0.716   5.395   3.687  0.0000  0.0000  0.0000
 1255SOL    HW1 9826   0.723   5.450   3.765  0.0000  0.0000  0.0000
 1255SOL    HW2 9827   0.624   5.403   3.660  0.0000  0.0000  0.0000
 1255SOL     MW 9828   0.705   5.403   3.694  0.0000  0.0000  0.0000
 1256SOL     OW 9829   4.580   3.364   6.302  0.0000  0.0000  0.0000
 1256SOL    HW1 9830   4.620   3.418   6.234  0.0000  0.0000  0.0000
 1256SOL    HW2 9831   4.493   3.343   6.268  0.0000  0.0000  0.0000
 1256SOL     MW 9832   4.574   3.368   6.289  0.0000  0.0000  0.0000
 1257SOL     OW 9833   4.361   6.200   4.433  0.0000  0.0000  0.0000
 1257SOL    HW1 9834   4.321   6.184   4.347  0.0000  0.0000  0.0000
 1257SOL    HW2 9835   4.408   6.119   4.453  0.0000  0.0000  0.0000
 1257SOL     MW 9836   4.362   6.187   4.424  0.0000  0.0000  0.0000
 1258SOL     OW 9837   0.546   5.347   6.284  0.0000  0.0000  0.0000
 1258SOL    HW1 9838   0.594   5.320   6.363  0.0000  0.0000  0.0000
 1258SOL    HW2 9839   0.583   5.432   6.262  0.0000  0.0000  0.0000
 1258SOL     MW 9840   0.557   5.355   6.292  0.0000  0.0000  0.0000
 1259SOL     OW 9841   0.201   5.779   1.635  0.0000  0.0000  0.0000
 1259SOL    HW1 9842   0.285   5.746   1.665  0.0000  0.0000  0.0000
 1259SOL    HW2 9843   0.175   5.843   1.701  0.0000  0.0000  0.0000
 1259SOL     MW 9844   0.208   5.783   1.648  0.0000  0.0000  0.0000
 1260SOL     OW 9845   3.091   2.923   2.362  0.0000  0.0000  0.0000
 1260SOL    HW1 9846   3.038   2.851   2.329  0.0000  0.0000  0.0000
 1260SOL    HW2 9847   3.180   2.902   2.336  0.0000  0.0000  0.0000
 1260SOL     MW 9848   3.096   2.911   2.354  0.0000  0.0000  0.0000
 1261SOL     OW 9849   2.852   5.672   6.203  0.0000  0.0000  0.0000
 1261SOL    HW1 9850   2.792   5.736   6.165  0.0000  0.0000  0.0000
 1261SOL    HW2 9851   2.801   5.631   6.274  0.0000  0.0000  0.0000
 1261SOL     MW 9852   2.837   5.675   6.208  0.0000  0.0000  0.0000
 1262SOL     OW 9853   2.263   5.203   6.424  0.0000  0.0000  0.0000
 1262SOL    HW1 9854   2.287   5.111   6.440  0.0000  0.0000  0.0000
 1262SOL    HW2 9855   2.313   5.227   6.346  0.0000  0.0000  0.0000
 1262SOL     MW 9856   2.273   5.194   6.416  0.0000  0.0000  0.0000
 1263SOL     OW 9857   2.423   6.131   6.116  0.0000  0.0000  0.0000
 1263SOL    HW1 9858   2.481   6.055   6.128  0.0000  0.0000  0.0000
 1263SOL    HW2 9859   2.392   6.122   6.026  0.0000  0.0000  0.0000
 1263SOL     MW 9860   2.427   6.120   6.105  0.0000  0.0000  0.0000
 1264SOL     OW 9861   3.442   3.164   6.293  0.0000  0.0000  0.0000
 1264SOL    HW1 9862   3.419   3.254   6.318  0.0000  0.0000  0.0000
 1264SOL    HW2 9863   3.364   3.113   6.315  0.0000  0.0000  0.0000
 1264SOL     MW 9864   3.428   3.169   6.299  0.0000  0.0000  0.0000
 1265SOL     OW 9865   1.933   2.689   5.199  0.0000  0.0000  0.0000
 1265SOL    HW1 9866   1.849   2.732   5.212  0.0000  0.0000  0.0000
 1265SOL    HW2 9867   1.997   2.748   5.240  0.0000  0.0000  0.0000
 1265SOL     MW 9868   1.930   2.702   5.206  0.0000  0.0000  0.0000
 1266SOL     OW 9869   2.045   3.082   2.936  0.0000  0.0000  0.0000
 1266SOL    HW1 9870   2.093   3.111   3.014  0.0000  0.0000  0.0000
 1266SOL    HW2 9871   1.955   3.110   2.952  0.0000  0.0000  0.0000
 1266SOL     MW 9872   2.039   3.089   2.949  0.0000  0.0000  0.0000
 1267SOL     OW 9873   2.781   2.910   5.914  0.0000  0.0000  0.0000
 1267SOL    HW1 9874   2.745   2.889   5.827  0.0000  0.0000  0.0000
 1267SOL    HW2 9875   2.811   3.000   5.907  0.0000  0.0000  0.0000
 1267SOL     MW 9876   2.780   2.919   5.901  0.0000  0.0000  0.0000
 1268SOL     OW 9877   0.170   5.332   2.734  0.0000  0.0000  0.0000
 1268SOL    HW1 9878   0.153   5.364   2.823  0.0000  0.0000  0.0000
 1268SOL    HW2 9879   0.084   5.308   2.700  0.0000  0.0000  0.0000
 1268SOL     MW 9880   0.156   5.333   2.741  0.0000  0.0000  0.0000
 1269SOL     OW 9881   1.143   2.859   5.654  0.0000  0.0000  0.0000
 1269SOL    HW1 9882   1.096   2.847   5.572  0.0000  0.0000  0.0000
 1269SOL    HW2 9883   1.235   2.861   5.629  0.0000  0.0000  0.0000
 1269SOL     MW 9884   1.149   2.857   5.640  0.0000  0.0000  0.0000
 1270SOL     OW 9885   0.761   6.793   1.995  0.0000  0.0000  0.0000
 1270SOL    HW1 9886   0.805   6.844   1.927  0.0000  0.0000  0.0000
 1270SOL    HW2 9887   0.670   6.786   1.965  0.0000  0.0000  0.0000
 1270SOL     MW 9888   0.755   6.799   1.982  0.0000  0.0000  0.0000
 1271SOL     OW 9889   3.556   5.739   6.082  0.0000  0.0000  0.0000
 1271SOL    HW1 9890   3.536   5.798   6.154  0.0000  0.0000  0.0000
 1271SOL    HW2 9891   3.474   5.693   6.064  0.0000  0.0000  0.0000
 1271SOL     MW 9892   3.543   5.741   6.089  0.0000  0.0000  0.0000
 1272SOL     OW 9893   0.822   6.282   6.348  0.0000  0.0000  0.0000
 1272SOL    HW1 9894   0.767   6.310   6.274  0.0000  0.0000  0.0000
 1272SOL    HW2 9895   0.777   6.317   6.425  0.0000  0.0000  0.0000
 1272SOL     MW 9896   0.809   6.290   6.348  0.0000  0.0000  0.0000
 1273SOL     OW 9897   3.808   5.320   1.778  0.0000  0.0000  0.0000
 1273SOL    HW1 9898   3.718   5.298   1.756  0.0000  0.0000  0.0000
 1273SOL    HW2 9899   3.822   5.407   1.741  0.0000  0.0000  0.0000
 1273SOL     MW 9900   3.798   5.329   1.770  0.0000  0.0000  0.0000
 1274SOL     OW 9901   1.308   4.338   6.377  0.0000  0.0000  0.0000
 1274SOL    HW1 9902   1.394   4.309   6.409  0.0000  0.0000  0.0000
 1274SOL    HW2 9903   1.246   4.275   6.414  0.0000  0.0000  0.0000
 1274SOL     MW 9904   1.311   4.326   6.386  0.0000  0.0000  0.0000
 1275SOL     OW 9905   0.630   3.643   6.261  0.0000  0.0000  0.0000
 1275SOL    HW1 9906   0.589   3.640   6.175  0.0000  0.0000  0.0000
 1275SOL    HW2 9907   0.561   3.677   6.318  0.0000  0.0000  0.0000
 1275SOL     MW 9908   0.615   3.647   6.258  0.0000  0.0000  0.0000
 1276SOL     OW 9909   3.172   5.893   2.805  0.0000  0.0000  0.0000
 1276SOL    HW1 9910   3.107   5.906   2.736  0.0000  0.0000  0.0000
 1276SOL    HW2 9911   3.121   5.866   2.881  0.0000  0.0000  0.0000
 1276SOL     MW 9912   3.157   5.891   2.806  0.0000  0.0000  0.0000
 1277SOL     OW 9913   0.089   4.740   6.121  0.0000  0.0000  0.0000
 1277SOL    HW1 9914   0.141   4.760   6.043  0.0000  0.0000  0.0000
 1277SOL    HW2 9915   0.001   4.768   6.099  0.0000  0.0000  0.0000
 1277SOL     MW 9916   0.084   4.746   6.108  0.0000  0.0000  0.0000
 1278SOL     OW 9917   0.986   6.606   4.059  0.0000  0.0000  0.0000
 1278SOL    HW1 9918   1.020   6.518   4.043  0.0000  0.0000  0.0000
 1278SOL    HW2 9919   0.896   6.603   4.029  0.0000  0.0000  0.0000
 1278SOL     MW 9920   0.979   6.594   4.053  0.0000  0.0000  0.0000
 1279SOL     OW 9921   3.738   3.291   3.017  0.0000  0.0000  0.0000
 1279SOL    HW1 9922   3.710   3.295   3.109  0.0000  0.0000  0.0000
 1279SOL    HW2 9923   3.676   3.230   2.976  0.0000  0.0000  0.0000
 1279SOL     MW 9924   3.726   3.284   3.024  0.0000  0.0000  0.0000
 1280SOL     OW 9925   3.078   3.251   5.287  0.0000  0.0000  0.0000
 1280SOL    HW1 9926   3.111   3.287   5.205  0.0000  0.0000  0.0000
 1280SOL    HW2 9927   3.030   3.172   5.261  0.0000  0.0000  0.0000
 1280SOL     MW 9928   3.076   3.245   5.273  0.0000  0.0000  0.0000
 1281SOL     OW 9929   0.045   5.668   4.727  0.0000  0.0000  0.0000
 1281SOL    HW1 9930   0.049   5.759   4.697  0.0000  0.0000  0.0000
 1281SOL    HW2 9931   0.101   5.620   4.666  0.0000  0.0000  0.0000
 1281SOL     MW 9932   0.053   5.673   4.715  0.0000  0.0000  0.0000
 1282SOL     OW 9933   0.871   2.762   5.212  0.0000  0.0000  0.0000
 1282SOL    HW1 9934   0.786   2.788   5.178  0.0000  0.0000  0.0000
 1282SOL    HW2 9935   0.921   2.736   5.135  0.0000  0.0000  0.0000
 1282SOL     MW 9936   0.866   2.762   5.198  0.0000  0.0000  0.0000
 1283SOL     OW 9937   2.001   6.900   1.702  0.0000  0.0000  0.0000
 1283SOL    HW1 9938   2.064   6.943   1.644  0.0000  0.0000  0.0000
 1283SOL    HW2 9939   1.916   6.915   1.660  0.0000  0.0000  0.0000
 1283SOL     MW 9940   1.998   6.907   1.689  0.0000  0.0000  0.0000
 1284SOL     OW 9941   2.031   4.257   5.763  0.0000  0.0000  0.0000
 1284SOL    HW1 9942   2.025   4.337   5.815  0.0000  0.0000  0.0000
 1284SOL    HW2 9943   1.950   4.209   5.784  0.0000  0.0000  0.0000
 1284SOL     MW 9944   2.019   4.261   5.773  0.0000  0.0000  0.0000
 1285SOL     OW 9945   4.297   5.734   2.184  0.0000  0.0000  0.0000
 1285SOL    HW1 9946   4.214   5.723   2.139  0.0000  0.0000  0.0000
 1285SOL    HW2 9947   4.362   5.698   2.124  0.0000  0.0000  0.0000
 1285SOL     MW 9948   4.295   5.728   2.170  0.0000  0.0000  0.0000
 1286SOL     OW 9949   1.786   5.410   5.948  0.0000  0.0000  0.0000
 1286SOL    HW1 9950   1.854   5.430   5.884  0.0000  0.0000  0.0000
 1286SOL    HW2 9951   1.806   5.467   6.023  0.0000  0.0000  0.0000
 1286SOL     MW 9952   1.797   5.420   5.950  0.0000  0.0000  0.0000
 1287SOL     OW 9953   1.953   3.580   6.314  0.0000  0.0000  0.0000
 1287SOL    HW1 9954   1.907   3.506   6.353  0.0000  0.0000  0.0000
 1287SOL    HW2 9955   1.970   3.553   6.223  0.0000  0.0000  0.0000
 1287SOL     MW 9956   1.949   3.567   6.307  0.0000  0.0000  0.0000
 1288SOL     OW 9957   1.427   3.835   6.004  0.0000  0.0000  0.0000
 1288SOL    HW1 9958   1.484   3.872   6.071  0.0000  0.0000  0.0000
 1288SOL    HW2 9959   1.340   3.832   6.045  0.0000  0.0000  0.0000
 1288SOL     MW 9960   1.423   3.839   6.018  0.0000  0.0000  0.0000
 1289SOL     OW 9961   1.339   6.398   6.383  0.0000  0.0000  0.0000
 1289SOL    HW1 9962   1.368   6.396   6.474  0.0000  0.0000  0.0000
 1289SOL    HW2 9963   1.244   6.385   6.388  0.0000  0.0000  0.0000
 1289SOL     MW 9964   1.331   6.396   6.395  0.0000  0.0000  0.0000
 1290SOL     OW 9965   3.145   6.387   6.071  0.0000  0.0000  0.0000
 1290SOL    HW1 9966   3.229   6.413   6.110  0.0000  0.0000  0.0000
 1290SOL    HW2 9967   3.081   6.408   6.139  0.0000  0.0000  0.0000
 1290SOL     MW 9968   3.148   6.393   6.085  0.0000  0.0000  0.0000
 1291SOL     OW 9969   0.639   5.668   1.898  0.0000  0.0000  0.0000
 1291SOL    HW1 9970   0.712   5.617   1.861  0.0000  0.0000  0.0000
 1291SOL    HW2 9971   0.675   5.756   1.909  0.0000  0.0000  0.0000
 1291SOL     MW 9972   0.654   5.673   1.894  0.0000  0.0000  0.0000
 1292SOL     OW 9973   0.837   3.483   2.379  0.0000  0.0000  0.0000
 1292SOL    HW1 9974   0.921   3.438   2.385  0.0000  0.0000  0.0000
 1292SOL    HW2 9975   0.797   3.471   2.465  0.0000  0.0000  0.0000
 1292SOL     MW 9976   0.843   3.476   2.391  0.0000  0.0000  0.0000
 1293SOL     OW 9977   3.156   4.761   1.927  0.0000  0.0000  0.0000
 1293SOL    HW1 9978   3.073   4.803   1.950  0.0000  0.0000  0.0000
 1293SOL    HW2 9979   3.156   4.760   1.831  0.0000  0.0000  0.0000
 1293SOL     MW 9980   3.145   4.766   1.918  0.0000  0.0000  0.0000
 1294SOL     OW 9981   2.004   5.553   6.261  0.0000  0.0000  0.0000
 1294SOL    HW1 9982   2.017   5.459   6.258  0.0000  0.0000  0.0000
 1294SOL    HW2 9983   2.028   5.584   6.174  0.0000  0.0000  0.0000
 1294SOL     MW 9984   2.009   5.545   6.249  0.0000  0.0000  0.0000
 1295SOL     OW 9985   4.470   7.199   2.456  0.0000  0.0000  0.0000
 1295SOL    HW1 9986   4.477   7.161   2.369  0.0000  0.0000  0.0000
 1295SOL    HW2 9987   4.458   7.293   2.440  0.0000  0.0000  0.0000
 1295SOL     MW 9988   4.469   7.207   2.443  0.0000  0.0000  0.0000
 1296SOL     OW 9989   0.312   6.646   6.451  0.0000  0.0000  0.0000
 1296SOL    HW1 9990   0.259   6.724   6.464  0.0000  0.0000  0.0000
 1296SOL    HW2 9991   0.340   6.650   6.359  0.0000  0.0000  0.0000
 1296SOL     MW 9992   0.309   6.657   6.440  0.0000  0.0000  0.0000
 1297SOL     OW 9993   1.820   2.817   1.601  0.0000  0.0000  0.0000
 1297SOL    HW1 9994   1.859   2.767   1.673  0.0000  0.0000  0.0000
 1297SOL    HW2 9995   1.735   2.776   1.586  0.0000  0.0000  0.0000
 1297SOL     MW 9996   1.814   2.805   1.609  0.0000  0.0000  0.0000
 1298SOL     OW 9997   4.430   6.268   2.116  0.0000  0.0000  0.0000
 1298SOL    HW1 9998   4.425   6.177   2.146  0.0000  0.0000  0.0000
 1298SOL    HW2 9999   4.443   6.261   2.021  0.0000  0.0000  0.0000
 1298SOL     MW10000   4.431   6.255   2.107  0.0000  0.0000  0.0000
 1299SOL     OW10001   2.999   6.192   2.670  0.0000  0.0000  0.0000
 1299SOL    HW110002   3.008   6.245   2.591  0.0000  0.0000  0.0000
 1299SOL    HW210003   2.959   6.250   2.734  0.0000  0.0000  0.0000
 1299SOL     MW10004   2.995   6.207   2.668  0.0000  0.0000  0.0000
 1300SOL     OW10005   1.105   3.146   1.769  0.0000  0.0000  0.0000
 1300SOL    HW110006   1.165   3.076   1.795  0.0000  0.0000  0.0000
 1300SOL    HW210007   1.051   3.107   1.701  0.0000  0.0000  0.0000
 1300SOL     MW10008   1.106   3.132   1.763  0.0000  0.0000  0.0000
 1301SOL     OW10009   3.607   6.767   5.744  0.0000  0.0000  0.0000
 1301SOL    HW110010   3.524   6.718   5.744  0.0000  0.0000  0.0000
 1301SOL    HW210011   3.667   6.712   5.794  0.0000  0.0000  0.0000
 1301SOL     MW10012   3.604   6.753   5.751  0.0000  0.0000  0.0000
 1302SOL     OW10013   3.483   3.071   5.328  0.0000  0.0000  0.0000
 1302SOL    HW110014   3.450   3.033   5.247  0.0000  0.0000  0.0000
 1302SOL    HW210015   3.576   3.046   5.329  0.0000  0.0000  0.0000
 1302SOL     MW10016   3.491   3.062   5.318  0.0000  0.0000  0.0000
 1303SOL     OW10017   0.626   4.578   2.081  0.0000  0.0000  0.0000
 1303SOL    HW110018   0.697   4.641   2.088  0.0000  0.0000  0.0000
 1303SOL    HW210019   0.549   4.625   2.113  0.0000  0.0000  0.0000
 1303SOL     MW10020   0.625   4.592   2.086  0.0000  0.0000  0.0000
 1304SOL     OW10021   2.826   4.607   2.105  0.0000  0.0000  0.0000
 1304SOL    HW110022   2.864   4.650   2.182  0.0000  0.0000  0.0000
 1304SOL    HW210023   2.890   4.540   2.081  0.0000  0.0000  0.0000
 1304SOL     MW10024   2.839   4.604   2.112  0.0000  0.0000  0.0000
 1305SOL     OW10025   0.868   3.461   6.296  0.0000  0.0000  0.0000
 1305SOL    HW110026   0.936   3.501   6.350  0.0000  0.0000  0.0000
 1305SOL    HW210027   0.795   3.447   6.356  0.0000  0.0000  0.0000
 1305SOL     MW10028   0.867   3.465   6.311  0.0000  0.0000  0.0000
 1306SOL     OW10029   1.064   6.378   6.423  0.0000  0.0000  0.0000
 1306SOL    HW110030   1.029   6.429   6.496  0.0000  0.0000  0.0000
 1306SOL    HW210031   0.997   6.312   6.405  0.0000  0.0000  0.0000
 1306SOL     MW10032   1.051   6.376   6.430  0.0000  0.0000  0.0000
 1307SOL     OW10033   2.768   2.882   2.606  0.0000  0.0000  0.0000
 1307SOL    HW110034   2.705   2.813   2.585  0.0000  0.0000  0.0000
 1307SOL    HW210035   2.744   2.910   2.694  0.0000  0.0000  0.0000
 1307SOL     MW10036   2.757   2.876   2.615  0.0000  0.0000  0.0000
 1308SOL     OW10037   2.778   2.749   5.627  0.0000  0.0000  0.0000
 1308SOL    HW110038   2.786   2.829   5.577  0.0000  0.0000  0.0000
 1308SOL    HW210039   2.684   2.738   5.641  0.0000  0.0000  0.0000
 1308SOL     MW10040   2.767   2.758   5.622  0.0000  0.0000  0.0000
 1309SOL     OW10041   2.186   6.541   2.197  0.0000  0.0000  0.0000
 1309SOL    HW110042   2.179   6.622   2.146  0.0000  0.0000  0.0000
 1309SOL    HW210043   2.201   6.473   2.132  0.0000  0.0000  0.0000
 1309SOL     MW10044   2.187   6.543   2.182  0.0000  0.0000  0.0000
 1310SOL     OW10045   1.212   3.687   2.852  0.0000  0.0000  0.0000
 1310SOL    HW110046   1.117   3.689   2.839  0.0000  0.0000  0.0000
 1310SOL    HW210047   1.248   3.684   2.764  0.0000  0.0000  0.0000
 1310SOL     MW10048   1.204   3.687   2.839  0.0000  0.0000  0.0000
 1311SOL     OW10049   1.451   2.936   6.299  0.0000  0.0000  0.0000
 1311SOL    HW110050   1.539   2.897   6.291  0.0000  0.0000  0.0000
 1311SOL    HW210051   1.461   3.003   6.366  0.0000  0.0000  0.0000
 1311SOL     MW10052   1.464   2.939   6.306  0.0000  0.0000  0.0000
 1312SOL     OW10053   3.098   7.111   3.607  0.0000  0.0000  0.0000
 1312SOL    HW110054   3.182   7.085   3.570  0.0000  0.0000  0.0000
 1312SOL    HW210055   3.121   7.177   3.673  0.0000  0.0000  0.0000
 1312SOL     MW10056   3.112   7.116   3.611  0.0000  0.0000  0.0000
 1313SOL     OW10057   3.009   4.406   2.063  0.0000  0.0000  0.0000
 1313SOL    HW110058   2.949   4.354   2.009  0.0000  0.0000  0.0000
 1313SOL    HW210059   3.092   4.402   2.016  0.0000  0.0000  0.0000
 1313SOL     MW10060   3.012   4.398   2.050  0.0000  0.0000  0.0000
 1314SOL     OW10061   0.436   3.882   5.545  0.0000  0.0000  0.0000
 1314SOL    HW110062   0.432   3.965   5.497  0.0000  0.0000  0.0000
 1314SOL    HW210063   0.528   3.856   5.540  0.0000  0.0000  0.0000
 1314SOL     MW10064   0.447   3.890   5.538  0.0000  0.0000  0.0000
 1315SOL     OW10065   2.452   6.958   5.043  0.0000  0.0000  0.0000
 1315SOL    HW110066   2.399   7.037   5.037  0.0000  0.0000  0.0000
 1315SOL    HW210067   2.468   6.933   4.951  0.0000  0.0000  0.0000
 1315SOL     MW10068   2.447   6.965   5.030  0.0000  0.0000  0.0000
 1316SOL     OW10069   1.001   5.108   6.051  0.0000  0.0000  0.0000
 1316SOL    HW110070   1.065   5.175   6.029  0.0000  0.0000  0.0000
 1316SOL    HW210071   1.013   5.094   6.145  0.0000  0.0000  0.0000
 1316SOL     MW10072   1.011   5.115   6.061  0.0000  0.0000  0.0000
 1317SOL     OW10073   0.409   5.556   4.747  0.0000  0.0000  0.0000
 1317SOL    HW110074   0.442   5.595   4.828  0.0000  0.0000  0.0000
 1317SOL    HW210075   0.420   5.624   4.681  0.0000  0.0000  0.0000
 1317SOL     MW10076   0.415   5.570   4.749  0.0000  0.0000  0.0000
 1318SOL     OW10077   3.793   5.996   1.781  0.0000  0.0000  0.0000
 1318SOL    HW110078   3.716   6.028   1.827  0.0000  0.0000  0.0000
 1318SOL    HW210079   3.760   5.928   1.722  0.0000  0.0000  0.0000
 1318SOL     MW10080   3.779   5.991   1.779  0.0000  0.0000  0.0000
 1319SOL     OW10081   1.958   5.150   6.037  0.0000  0.0000  0.0000
 1319SOL    HW110082   1.988   5.184   6.121  0.0000  0.0000  0.0000
 1319SOL    HW210083   1.908   5.222   5.999  0.0000  0.0000  0.0000
 1319SOL     MW10084   1.955   5.164   6.043  0.0000  0.0000  0.0000
 1320SOL     OW10085   1.467   5.235   6.259  0.0000  0.0000  0.0000
 1320SOL    HW110086   1.498   5.196   6.341  0.0000  0.0000  0.0000
 1320SOL    HW210087   1.468   5.329   6.275  0.0000  0.0000  0.0000
 1320SOL     MW10088   1.471   5.242   6.272  0.0000  0.0000  0.0000
 1321SOL     OW10089   3.095   6.725   5.918  0.0000  0.0000  0.0000
 1321SOL    HW110090   3.041   6.714   5.840  0.0000  0.0000  0.0000
 1321SOL    HW210091   3.185   6.711   5.887  0.0000  0.0000  0.0000
 1321SOL     MW10092   3.100   6.722   5.904  0.0000  0.0000  0.0000
 1322SOL     OW10093   1.598   3.919   6.228  0.0000  0.0000  0.0000
 1322SOL    HW110094   1.535   3.977   6.272  0.0000  0.0000  0.0000
 1322SOL    HW210095   1.667   3.978   6.197  0.0000  0.0000  0.0000
 1322SOL     MW10096   1.599   3.935   6.229  0.0000  0.0000  0.0000
 1323SOL     OW10097   1.389   3.686   6.481  0.0000  0.0000  0.0000
 1323SOL    HW110098   1.442   3.632   6.540  0.0000  0.0000  0.0000
 1323SOL    HW210099   1.353   3.755   6.538  0.0000  0.0000  0.0000
 1323SOL     MW10100   1.391   3.688   6.496  0.0000  0.0000  0.0000
 1324SOL     OW10101   0.793   3.649   1.998  0.0000  0.0000  0.0000
 1324SOL    HW110102   0.700   3.644   1.977  0.0000  0.0000  0.0000
 1324SOL    HW210103   0.795   3.686   2.087  0.0000  0.0000  0.0000
 1324SOL     MW10104   0.781   3.654   2.007  0.0000  0.0000  0.0000
 1325SOL     OW10105   2.753   3.894   1.598  0.0000  0.0000  0.0000
 1325SOL    HW110106   2.710   3.874   1.681  0.0000  0.0000  0.0000
 1325SOL    HW210107   2.691   3.865   1.531  0.0000  0.0000  0.0000
 1325SOL     MW10108   2.739   3.888   1.600  0.0000  0.0000  0.0000
 1326SOL     OW10109   3.533   6.186   5.868  0.0000  0.0000  0.0000
 1326SOL    HW110110   3.572   6.110   5.912  0.0000  0.0000  0.0000
 1326SOL    HW210111   3.443   6.159   5.850  0.0000  0.0000  0.0000
 1326SOL     MW10112   3.526   6.172   5.871  0.0000  0.0000  0.0000
 1327SOL     OW10113   4.087   7.079   2.280  0.0000  0.0000  0.0000
 1327SOL    HW110114   4.158   7.015   2.283  0.0000  0.0000  0.0000
 1327SOL    HW210115   4.109   7.137   2.207  0.0000  0.0000  0.0000
 1327SOL     MW10116   4.099   7.078   2.271  0.0000  0.0000  0.0000
 1328SOL     OW10117   4.189   4.120   2.510  0.0000  0.0000  0.0000
 1328SOL    HW110118   4.256   4.055   2.531  0.0000  0.0000  0.0000
 1328SOL    HW210119   4.125   4.113   2.581  0.0000  0.0000  0.0000
 1328SOL     MW10120   4.190   4.111   2.522  0.0000  0.0000  0.0000
 1329SOL     OW10121   2.522   2.622   5.436  0.0000  0.0000  0.0000
 1329SOL    HW110122   2.491   2.670   5.512  0.0000  0.0000  0.0000
 1329SOL    HW210123   2.471   2.541   5.437  0.0000  0.0000  0.0000
 1329SOL     MW10124   2.511   2.617   5.446  0.0000  0.0000  0.0000
 1330SOL     OW10125   1.404   5.160   5.862  0.0000  0.0000  0.0000
 1330SOL    HW110126   1.336   5.137   5.798  0.0000  0.0000  0.0000
 1330SOL    HW210127   1.446   5.077   5.883  0.0000  0.0000  0.0000
 1330SOL     MW10128   1.400   5.146   5.856  0.0000  0.0000  0.0000
 1331SOL     OW10129   1.690   6.562   4.149  0.0000  0.0000  0.0000
 1331SOL    HW110130   1.769   6.576   4.098  0.0000  0.0000  0.0000
 1331SOL    HW210131   1.649   6.484   4.110  0.0000  0.0000  0.0000
 1331SOL     MW10132   1.695   6.553   4.137  0.0000  0.0000  0.0000
 1332SOL     OW10133   4.315   3.709   2.026  0.0000  0.0000  0.0000
 1332SOL    HW110134   4.320   3.749   2.113  0.0000  0.0000  0.0000
 1332SOL    HW210135   4.249   3.760   1.979  0.0000  0.0000  0.0000
 1332SOL     MW10136   4.307   3.721   2.031  0.0000  0.0000  0.0000
 1333SOL     OW10137   2.520   3.000   2.320  0.0000  0.0000  0.0000
 1333SOL    HW110138   2.517   3.080   2.373  0.0000  0.0000  0.0000
 1333SOL    HW210139   2.611   2.994   2.292  0.0000  0.0000  0.0000
 1333SOL     MW10140   2.531   3.010   2.324  0.0000  0.0000  0.0000
 1334SOL     OW10141   0.344   4.497   1.602  0.0000  0.0000  0.0000
 1334SOL    HW110142   0.269   4.532   1.554  0.0000  0.0000  0.0000
 1334SOL    HW210143   0.415   4.559   1.585  0.0000  0.0000  0.0000
 1334SOL     MW10144   0.343   4.510   1.594  0.0000  0.0000  0.0000
 1335SOL     OW10145   2.900   5.210   1.638  0.0000  0.0000  0.0000
 1335SOL    HW110146   2.983   5.169   1.663  0.0000  0.0000  0.0000
 1335SOL    HW210147   2.922   5.303   1.626  0.0000  0.0000  0.0000
 1335SOL     MW10148   2.914   5.217   1.640  0.0000  0.0000  0.0000
 1336SOL     OW10149   1.811   6.963   6.412  0.0000  0.0000  0.0000
 1336SOL    HW110150   1.802   6.869   6.398  0.0000  0.0000  0.0000
 1336SOL    HW210151   1.725   7.000   6.389  0.0000  0.0000  0.0000
 1336SOL     MW10152   1.798   6.956   6.407  0.0000  0.0000  0.0000
 1337SOL     OW10153   3.474   4.399   1.935  0.0000  0.0000  0.0000
 1337SOL    HW110154   3.494   4.341   1.861  0.0000  0.0000  0.0000
 1337SOL    HW210155   3.492   4.487   1.901  0.0000  0.0000  0.0000
 1337SOL     MW10156   3.479   4.403   1.920  0.0000  0.0000  0.0000
 1338SOL     OW10157   4.026   6.868   3.309  0.0000  0.0000  0.0000
 1338SOL    HW110158   4.088   6.884   3.380  0.0000  0.0000  0.0000
 1338SOL    HW210159   4.072   6.895   3.230  0.0000  0.0000  0.0000
 1338SOL     MW10160   4.040   6.873   3.308  0.0000  0.0000  0.0000
 1339SOL     OW10161   0.460   3.256   2.356  0.0000  0.0000  0.0000
 1339SOL    HW110162   0.397   3.212   2.300  0.0000  0.0000  0.0000
 1339SOL    HW210163   0.407   3.302   2.421  0.0000  0.0000  0.0000
 1339SOL     MW10164   0.445   3.257   2.357  0.0000  0.0000  0.0000
 1340SOL     OW10165   2.888   6.391   2.039  0.0000  0.0000  0.0000
 1340SOL    HW110166   2.864   6.480   2.065  0.0000  0.0000  0.0000
 1340SOL    HW210167   2.973   6.377   2.079  0.0000  0.0000  0.0000
 1340SOL     MW10168   2.896   6.401   2.048  0.0000  0.0000  0.0000
 1341SOL     OW10169   3.054   4.278   2.317  0.0000  0.0000  0.0000
 1341SOL    HW110170   3.149   4.289   2.315  0.0000  0.0000  0.0000
 1341SOL    HW210171   3.025   4.315   2.233  0.0000  0.0000  0.0000
 1341SOL     MW10172   3.063   4.285   2.306  0.0000  0.0000  0.0000
 1342SOL     OW10173   0.306   3.479   6.276  0.0000  0.0000  0.0000
 1342SOL    HW110174   0.366   3.433   6.218  0.0000  0.0000  0.0000
 1342SOL    HW210175   0.281   3.414   6.341  0.0000  0.0000  0.0000
 1342SOL     MW10176   0.310   3.465   6.277  0.0000  0.0000  0.0000
 1343SOL     OW10177   0.354   6.430   2.059  0.0000  0.0000  0.0000
 1343SOL    HW110178   0.287   6.480   2.012  0.0000  0.0000  0.0000
 1343SOL    HW210179   0.305   6.375   2.119  0.0000  0.0000  0.0000
 1343SOL     MW10180   0.339   6.430   2.061  0.0000  0.0000  0.0000
 1344SOL     OW10181   2.689   6.359   5.664  0.0000  0.0000  0.0000
 1344SOL    HW110182   2.660   6.440   5.707  0.0000  0.0000  0.0000
 1344SOL    HW210183   2.664   6.289   5.725  0.0000  0.0000  0.0000
 1344SOL     MW10184   2.682   6.361   5.678  0.0000  0.0000  0.0000
 1345SOL     OW10185   4.483   4.946   1.775  0.0000  0.0000  0.0000
 1345SOL    HW110186   4.496   5.018   1.837  0.0000  0.0000  0.0000
 1345SOL    HW210187   4.569   4.929   1.738  0.0000  0.0000  0.0000
 1345SOL     MW10188   4.496   4.953   1.778  0.0000  0.0000  0.0000
 1346SOL     OW10189   3.027   3.800   2.139  0.0000  0.0000  0.0000
 1346SOL    HW110190   3.091   3.747   2.187  0.0000  0.0000  0.0000
 1346SOL    HW210191   3.042   3.889   2.169  0.0000  0.0000  0.0000
 1346SOL     MW10192   3.037   3.805   2.149  0.0000  0.0000  0.0000
 1347SOL     OW10193   0.113   5.014   3.062  0.0000  0.0000  0.0000
 1347SOL    HW110194   0.157   5.071   3.124  0.0000  0.0000  0.0000
 1347SOL    HW210195   0.154   5.033   2.977  0.0000  0.0000  0.0000
 1347SOL     MW10196   0.124   5.024   3.059  0.0000  0.0000  0.0000
 1348SOL     OW10197   1.196   3.976   2.052  0.0000  0.0000  0.0000
 1348SOL    HW110198   1.110   3.998   2.087  0.0000  0.0000  0.0000
 1348SOL    HW210199   1.227   4.058   2.014  0.0000  0.0000  0.0000
 1348SOL     MW10200   1.189   3.990   2.052  0.0000  0.0000  0.0000
 1349SOL     OW10201   4.351   6.877   6.512  0.0000  0.0000  0.0000
 1349SOL    HW110202   4.348   6.911   6.423  0.0000  0.0000  0.0000
 1349SOL    HW210203   4.343   6.782   6.501  0.0000  0.0000  0.0000
 1349SOL     MW10204   4.349   6.869   6.499  0.0000  0.0000  0.0000
 1350SOL     OW10205   4.407   2.963   5.740  0.0000  0.0000  0.0000
 1350SOL    HW110206   4.421   3.033   5.804  0.0000  0.0000  0.0000
 1350SOL    HW210207   4.494   2.927   5.724  0.0000  0.0000  0.0000
 1350SOL     MW10208   4.420   2.968   5.746  0.0000  0.0000  0.0000
 1351SOL     OW10209   3.631   6.674   3.196  0.0000  0.0000  0.0000
 1351SOL    HW110210   3.626   6.602   3.259  0.0000  0.0000  0.0000
 1351SOL    HW210211   3.724   6.687   3.181  0.0000  0.0000  0.0000
 1351SOL     MW10212   3.643   6.666   3.202  0.0000  0.0000  0.0000
 1352SOL     OW10213   3.009   5.828   5.744  0.0000  0.0000  0.0000
 1352SOL    HW110214   3.074   5.792   5.804  0.0000  0.0000  0.0000
 1352SOL    HW210215   3.054   5.835   5.660  0.0000  0.0000  0.0000
 1352SOL     MW10216   3.024   5.824   5.741  0.0000  0.0000  0.0000
 1353SOL     OW10217   4.137   3.831   1.859  0.0000  0.0000  0.0000
 1353SOL    HW110218   4.076   3.766   1.824  0.0000  0.0000  0.0000
 1353SOL    HW210219   4.083   3.910   1.871  0.0000  0.0000  0.0000
 1353SOL     MW10220   4.122   3.833   1.856  0.0000  0.0000  0.0000
 1354SOL     OW10221   4.654   2.888   2.072  0.0000  0.0000  0.0000
 1354SOL    HW110222   4.702   2.808   2.092  0.0000  0.0000  0.0000
 1354SOL    HW210223   4.578   2.858   2.022  0.0000  0.0000  0.0000
 1354SOL     MW10224   4.650   2.873   2.068  0.0000  0.0000  0.0000
 1355SOL     OW10225   3.710   4.627   2.134  0.0000  0.0000  0.0000
 1355SOL    HW110226   3.763   4.703   2.160  0.0000  0.0000  0.0000
 1355SOL    HW210227   3.775   4.563   2.103  0.0000  0.0000  0.0000
 1355SOL     MW10228   3.726   4.629   2.133  0.0000  0.0000  0.0000
 1356SOL     OW10229   1.960   6.405   2.256  0.0000  0.0000  0.0000
 1356SOL    HW110230   2.039   6.459   2.254  0.0000  0.0000  0.0000
 1356SOL    HW210231   1.918   6.428   2.339  0.0000  0.0000  0.0000
 1356SOL     MW10232   1.965   6.415   2.267  0.0000  0.0000  0.0000
 1357SOL     OW10233   4.223   6.991   1.867  0.0000  0.0000  0.0000
 1357SOL    HW110234   4.234   6.908   1.913  0.0000  0.0000  0.0000
 1357SOL    HW210235   4.142   6.979   1.816  0.0000  0.0000  0.0000
 1357SOL     MW10236   4.214   6.978   1.866  0.0000  0.0000  0.0000
 1358SOL     OW10237   2.357   6.783   6.426  0.0000  0.0000  0.0000
 1358SOL    HW110238   2.366   6.769   6.521  0.0000  0.0000  0.0000
 1358SOL    HW210239   2.383   6.874   6.413  0.0000  0.0000  0.0000
 1358SOL     MW10240   2.362   6.793   6.437  0.0000  0.0000  0.0000
 1359SOL     OW10241   1.149   4.145   3.957  0.0000  0.0000  0.0000
 1359SOL    HW110242   1.069   4.179   3.916  0.0000  0.0000  0.0000
 1359SOL    HW210243   1.211   4.218   3.954  0.0000  0.0000  0.0000
 1359SOL     MW10244   1.147   4.159   3.951  0.0000  0.0000  0.0000
 1360SOL     OW10245   4.140   3.837   3.112  0.0000  0.0000  0.0000
 1360SOL    HW110246   4.208   3.817   3.176  0.0000  0.0000  0.0000
 1360SOL    HW210247   4.188   3.854   3.031  0.0000  0.0000  0.0000
 1360SOL     MW10248   4.155   3.837   3.110  0.0000  0.0000  0.0000
 1361SOL     OW10249   4.020   6.491   5.254  0.0000  0.0000  0.0000
 1361SOL    HW110250   4.015   6.470   5.161  0.0000  0.0000  0.0000
 1361SOL    HW210251   4.107   6.530   5.266  0.0000  0.0000  0.0000
 1361SOL     MW10252   4.031   6.493   5.244  0.0000  0.0000  0.0000
 1362SOL     OW10253   0.802   2.610   5.434  0.0000  0.0000  0.0000
 1362SOL    HW110254   0.707   2.606   5.434  0.0000  0.0000  0.0000
 1362SOL    HW210255   0.824   2.666   5.360  0.0000  0.0000  0.0000
 1362SOL     MW10256   0.793   2.617   5.424  0.0000  0.0000  0.0000
 1363SOL     OW10257   0.267   3.112   2.199  0.0000  0.0000  0.0000
 1363SOL    HW110258   0.322   3.052   2.148  0.0000  0.0000  0.0000
 1363SOL    HW210259   0.193   3.132   2.142  0.0000  0.0000  0.0000
 1363SOL     MW10260   0.265   3.107   2.185  0.0000  0.0000  0.0000
 1364SOL     OW10261   2.803   6.166   1.699  0.0000  0.0000  0.0000
 1364SOL    HW110262   2.836   6.250   1.665  0.0000  0.0000  0.0000
 1364SOL    HW210263   2.776   6.185   1.788  0.0000  0.0000  0.0000
 1364SOL     MW10264   2.804   6.180   1.706  0.0000  0.0000  0.0000
 1365SOL     OW10265   1.243   3.076   2.574  0.0000  0.0000  0.0000
 1365SOL    HW110266   1.280   3.001   2.526  0.0000  0.0000  0.0000
 1365SOL    HW210267   1.183   3.036   2.638  0.0000  0.0000  0.0000
 1365SOL     MW10268   1.240   3.061   2.576  0.0000  0.0000  0.0000
 1366SOL     OW10269   1.723   5.865   6.231  0.0000  0.0000  0.0000
 1366SOL    HW110270   1.734   5.876   6.326  0.0000  0.0000  0.0000
 1366SOL    HW210271   1.703   5.772   6.220  0.0000  0.0000  0.0000
 1366SOL     MW10272   1.722   5.854   6.242  0.0000  0.0000  0.0000
 1367SOL     OW10273   2.144   2.952   3.515  0.0000  0.0000  0.0000
 1367SOL    HW110274   2.056   2.946   3.476  0.0000  0.0000  0.0000
 1367SOL    HW210275   2.198   2.987   3.445  0.0000  0.0000  0.0000
 1367SOL     MW10276   2.139   2.956   3.500  0.0000  0.0000  0.0000
 1368SOL     OW10277   1.069   2.865   5.391  0.0000  0.0000  0.0000
 1368SOL    HW110278   1.156   2.834   5.364  0.0000  0.0000  0.0000
 1368SOL    HW210279   1.008   2.809   5.343  0.0000  0.0000  0.0000
 1368SOL     MW10280   1.073   2.854   5.381  0.0000  0.0000  0.0000
 1369SOL     OW10281   0.648   3.604   1.599  0.0000  0.0000  0.0000
 1369SOL    HW110282   0.624   3.518   1.565  0.0000  0.0000  0.0000
 1369SOL    HW210283   0.740   3.596   1.622  0.0000  0.0000  0.0000
 1369SOL     MW10284   0.657   3.592   1.598  0.0000  0.0000  0.0000
 1370SOL     OW10285   1.813   5.189   6.482  0.0000  0.0000  0.0000
 1370SOL    HW110286   1.720   5.184   6.507  0.0000  0.0000  0.0000
 1370SOL    HW210287   1.848   5.262   6.533  0.0000  0.0000  0.0000
 1370SOL     MW10288   1.805   5.198   6.492  0.0000  0.0000  0.0000
 1371SOL     OW10289   2.603   4.145   1.577  0.0000  0.0000  0.0000
 1371SOL    HW110290   2.678   4.177   1.526  0.0000  0.0000  0.0000
 1371SOL    HW210291   2.626   4.055   1.600  0.0000  0.0000  0.0000
 1371SOL     MW10292   2.616   4.138   1.573  0.0000  0.0000  0.0000
 1372SOL     OW10293   4.157   6.840   6.108  0.0000  0.0000  0.0000
 1372SOL    HW110294   4.156   6.755   6.151  0.0000  0.0000  0.0000
 1372SOL    HW210295   4.229   6.887   6.150  0.0000  0.0000  0.0000
 1372SOL     MW10296   4.166   6.835   6.119  0.0000  0.0000  0.0000
 1373SOL     OW10297   2.429   4.867   1.649  0.0000  0.0000  0.0000
 1373SOL    HW110298   2.390   4.782   1.629  0.0000  0.0000  0.0000
 1373SOL    HW210299   2.516   4.846   1.684  0.0000  0.0000  0.0000
 1373SOL     MW10300   2.436   4.853   1.651  0.0000  0.0000  0.0000
 1374SOL     OW10301   2.041   6.284   5.639  0.0000  0.0000  0.0000
 1374SOL    HW110302   2.110   6.350   5.649  0.0000  0.0000  0.0000
 1374SOL    HW210303   1.993   6.286   5.722  0.0000  0.0000  0.0000
 1374SOL     MW10304   2.044   6.293   5.652  0.0000  0.0000  0.0000
 1375SOL     OW10305   0.037   6.343   6.020  0.0000  0.0000  0.0000
 1375SOL    HW110306   0.098   6.278   5.984  0.0000  0.0000  0.0000
 1375SOL    HW210307   0.080   6.374   6.100  0.0000  0.0000  0.0000
 1375SOL     MW10308   0.051   6.339   6.025  0.0000  0.0000  0.0000
 1376SOL     OW10309   2.169   6.322   1.987  0.0000  0.0000  0.0000
 1376SOL    HW110310   2.108   6.264   2.034  0.0000  0.0000  0.0000
 1376SOL    HW210311   2.112   6.384   1.942  0.0000  0.0000  0.0000
 1376SOL     MW10312   2.153   6.322   1.987  0.0000  0.0000  0.0000
 1377SOL     OW10313   0.548   7.194   6.072  0.0000  0.0000  0.0000
 1377SOL    HW110314   0.546   7.276   6.121  0.0000  0.0000  0.0000
 1377SOL    HW210315   0.572   7.220   5.983  0.0000  0.0000  0.0000
 1377SOL     MW10316   0.551   7.208   6.067  0.0000  0.0000  0.0000
 1378SOL     OW10317   0.778   4.811   2.256  0.0000  0.0000  0.0000
 1378SOL    HW110318   0.694   4.849   2.232  0.0000  0.0000  0.0000
 1378SOL    HW210319   0.798   4.849   2.341  0.0000  0.0000  0.0000
 1378SOL     MW10320   0.769   4.821   2.264  0.0000  0.0000  0.0000
 1379SOL     OW10321   3.258   6.147   6.306  0.0000  0.0000  0.0000
 1379SOL    HW110322   3.170   6.184   6.311  0.0000  0.0000  0.0000
 1379SOL    HW210323   3.276   6.115   6.395  0.0000  0.0000  0.0000
 1379SOL     MW10324   3.249   6.148   6.318  0.0000  0.0000  0.0000
 1380SOL     OW10325   1.199   3.039   3.388  0.0000  0.0000  0.0000
 1380SOL    HW110326   1.232   3.031   3.299  0.0000  0.0000  0.0000
 1380SOL    HW210327   1.278   3.051   3.441  0.0000  0.0000  0.0000
 1380SOL     MW10328   1.214   3.039   3.383  0.0000  0.0000  0.0000
 1381SOL     OW10329   1.568   6.539   6.259  0.0000  0.0000  0.0000
 1381SOL    HW110330   1.486   6.514   6.300  0.0000  0.0000  0.0000
 1381SOL    HW210331   1.626   6.464   6.271  0.0000  0.0000  0.0000
 1381SOL     MW10332   1.565   6.526   6.266  0.0000  0.0000  0.0000
 1382SOL     OW10333   3.021   4.812   1.664  0.0000  0.0000  0.0000
 1382SOL    HW110334   2.961   4.738   1.657  0.0000  0.0000  0.0000
 1382SOL    HW210335   3.069   4.812   1.581  0.0000  0.0000  0.0000
 1382SOL     MW10336   3.019   4.802   1.652  0.0000  0.0000  0.0000
 1383SOL     OW10337   0.221   6.682   5.327  0.0000  0.0000  0.0000
 1383SOL    HW110338   0.224   6.758   5.268  0.0000  0.0000  0.0000
 1383SOL    HW210339   0.283   6.620   5.289  0.0000  0.0000  0.0000
 1383SOL     MW10340   0.230   6.684   5.314  0.0000  0.0000  0.0000
 1384SOL     OW10341   1.025   6.667   1.712  0.0000  0.0000  0.0000
 1384SOL    HW110342   0.976   6.703   1.638  0.0000  0.0000  0.0000
 1384SOL    HW210343   0.962   6.611   1.758  0.0000  0.0000  0.0000
 1384SOL     MW10344   1.010   6.664   1.708  0.0000  0.0000  0.0000
 1385SOL     OW10345   2.978   6.355   2.438  0.0000  0.0000  0.0000
 1385SOL    HW110346   2.895   6.343   2.391  0.0000  0.0000  0.0000
 1385SOL    HW210347   3.033   6.404   2.377  0.0000  0.0000  0.0000
 1385SOL     MW10348   2.974   6.360   2.423  0.0000  0.0000  0.0000
 1386SOL     OW10349   1.259   4.844   1.824  0.0000  0.0000  0.0000
 1386SOL    HW110350   1.325   4.802   1.769  0.0000  0.0000  0.0000
 1386SOL    HW210351   1.179   4.843   1.772  0.0000  0.0000  0.0000
 1386SOL     MW10352   1.257   4.838   1.810  0.0000  0.0000  0.0000
 1387SOL     OW10353   2.221   5.813   5.597  0.0000  0.0000  0.0000
 1387SOL    HW110354   2.149   5.783   5.654  0.0000  0.0000  0.0000
 1387SOL    HW210355   2.204   5.906   5.583  0.0000  0.0000  0.0000
 1387SOL     MW10356   2.209   5.821   5.603  0.0000  0.0000  0.0000
 1388SOL     OW10357   1.068   6.639   6.248  0.0000  0.0000  0.0000
 1388SOL    HW110358   1.092   6.569   6.308  0.0000  0.0000  0.0000
 1388SOL    HW210359   1.131   6.708   6.265  0.0000  0.0000  0.0000
 1388SOL     MW10360   1.079   6.639   6.258  0.0000  0.0000  0.0000
 1389SOL     OW10361   0.263   5.292   6.373  0.0000  0.0000  0.0000
 1389SOL    HW110362   0.352   5.275   6.343  0.0000  0.0000  0.0000
 1389SOL    HW210363   0.246   5.383   6.347  0.0000  0.0000  0.0000
 1389SOL     MW10364   0.272   5.302   6.365  0.0000  0.0000  0.0000
 1390SOL     OW10365   1.996   6.500   6.326  0.0000  0.0000  0.0000
 1390SOL    HW110366   2.053   6.574   6.305  0.0000  0.0000  0.0000
 1390SOL    HW210367   1.921   6.539   6.371  0.0000  0.0000  0.0000
 1390SOL     MW10368   1.994   6.515   6.329  0.0000  0.0000  0.0000
 1391SOL     OW10369   1.143   4.535   4.137  0.0000  0.0000  0.0000
 1391SOL    HW110370   1.162   4.608   4.195  0.0000  0.0000  0.0000
 1391SOL    HW210371   1.139   4.458   4.195  0.0000  0.0000  0.0000
 1391SOL     MW10372   1.145   4.534   4.152  0.0000  0.0000  0.0000
 1392SOL     OW10373   3.962   5.577   1.721  0.0000  0.0000  0.0000
 1392SOL    HW110374   3.973   5.594   1.814  0.0000  0.0000  0.0000
 1392SOL    HW210375   4.015   5.644   1.678  0.0000  0.0000  0.0000
 1392SOL     MW10376   3.970   5.588   1.727  0.0000  0.0000  0.0000
 1393SOL     OW10377   1.489   6.803   6.150  0.0000  0.0000  0.0000
 1393SOL    HW110378   1.489   6.718   6.193  0.0000  0.0000  0.0000
 1393SOL    HW210379   1.426   6.855   6.201  0.0000  0.0000  0.0000
 1393SOL     MW10380   1.480   6.799   6.163  0.0000  0.0000  0.0000
 1394SOL     OW10381   0.848   5.861   1.849  0.0000  0.0000  0.0000
 1394SOL    HW110382   0.902   5.938   1.868  0.0000  0.0000  0.0000
 1394SOL    HW210383   0.910   5.796   1.816  0.0000  0.0000  0.0000
 1394SOL     MW10384   0.863   5.862   1.847  0.0000  0.0000  0.0000
 1395SOL     OW10385   4.051   5.991   6.478  0.0000  0.0000  0.0000
 1395SOL    HW110386   4.126   5.981   6.419  0.0000  0.0000  0.0000
 1395SOL    HW210387   4.032   6.085   6.476  0.0000  0.0000  0.0000
 1395SOL     MW10388   4.059   6.002   6.470  0.0000  0.0000  0.0000
 1396SOL     OW10389   0.915   3.688   1.660  0.0000  0.0000  0.0000
 1396SOL    HW110390   0.866   3.757   1.704  0.0000  0.0000  0.0000
 1396SOL    HW210391   0.982   3.661   1.723  0.0000  0.0000  0.0000
 1396SOL     MW10392   0.917   3.693   1.674  0.0000  0.0000  0.0000
 1397SOL     OW10393   2.564   2.712   2.573  0.0000  0.0000  0.0000
 1397SOL    HW110394   2.515   2.726   2.492  0.0000  0.0000  0.0000
 1397SOL    HW210395   2.501   2.732   2.642  0.0000  0.0000  0.0000
 1397SOL     MW10396   2.549   2.716   2.571  0.0000  0.0000  0.0000
 1398SOL     OW10397   1.398   2.937   2.240  0.0000  0.0000  0.0000
 1398SOL    HW110398   1.420   2.868   2.177  0.0000  0.0000  0.0000
 1398SOL    HW210399   1.463   3.005   2.224  0.0000  0.0000  0.0000
 1398SOL     MW10400   1.410   2.937   2.229  0.0000  0.0000  0.0000
 1399SOL     OW10401   3.236   3.634   2.157  0.0000  0.0000  0.0000
 1399SOL    HW110402   3.329   3.618   2.171  0.0000  0.0000  0.0000
 1399SOL    HW210403   3.225   3.630   2.062  0.0000  0.0000  0.0000
 1399SOL     MW10404   3.247   3.631   2.146  0.0000  0.0000  0.0000
 1400SOL     OW10405   1.891   2.870   3.419  0.0000  0.0000  0.0000
 1400SOL    HW110406   1.804   2.881   3.458  0.0000  0.0000  0.0000
 1400SOL    HW210407   1.875   2.819   3.339  0.0000  0.0000  0.0000
 1400SOL     MW10408   1.877   2.865   3.414  0.0000  0.0000  0.0000
 1401SOL     OW10409   4.638   6.951   6.105  0.0000  0.0000  0.0000
 1401SOL    HW110410   4.728   6.921   6.119  0.0000  0.0000  0.0000
 1401SOL    HW210411   4.635   6.978   6.013  0.0000  0.0000  0.0000
 1401SOL     MW10412   4.649   6.951   6.094  0.0000  0.0000  0.0000
 1402SOL     OW10413   0.304   5.892   4.611  0.0000  0.0000  0.0000
 1402SOL    HW110414   0.346   5.811   4.584  0.0000  0.0000  0.0000
 1402SOL    HW210415   0.354   5.921   4.687  0.0000  0.0000  0.0000
 1402SOL     MW10416   0.316   5.886   4.618  0.0000  0.0000  0.0000
 1403SOL     OW10417   3.277   5.187   6.404  0.0000  0.0000  0.0000
 1403SOL    HW110418   3.315   5.138   6.331  0.0000  0.0000  0.0000
 1403SOL    HW210419   3.185   5.160   6.407  0.0000  0.0000  0.0000
 1403SOL     MW10420   3.270   5.177   6.395  0.0000  0.0000  0.0000
 1404SOL     OW10421   3.454   3.444   6.423  0.0000  0.0000  0.0000
 1404SOL    HW110422   3.533   3.432   6.475  0.0000  0.0000  0.0000
 1404SOL    HW210423   3.453   3.538   6.403  0.0000  0.0000  0.0000
 1404SOL     MW10424   3.464   3.455   6.427  0.0000  0.0000  0.0000
 1405SOL     OW10425   4.202   3.482   1.845  0.0000  0.0000  0.0000
 1405SOL    HW110426   4.281   3.504   1.794  0.0000  0.0000  0.0000
 1405SOL    HW210427   4.202   3.545   1.916  0.0000  0.0000  0.0000
 1405SOL     MW10428   4.213   3.493   1.847  0.0000  0.0000  0.0000
 1406SOL     OW10429   1.124   6.278   1.599  0.0000  0.0000  0.0000
 1406SOL    HW110430   1.183   6.257   1.526  0.0000  0.0000  0.0000
 1406SOL    HW210431   1.177   6.332   1.658  0.0000  0.0000  0.0000
 1406SOL     MW10432   1.139   6.282   1.597  0.0000  0.0000  0.0000
 1407SOL     OW10433   3.461   5.522   2.960  0.0000  0.0000  0.0000
 1407SOL    HW110434   3.429   5.581   2.891  0.0000  0.0000  0.0000
 1407SOL    HW210435   3.555   5.537   2.962  0.0000  0.0000  0.0000
 1407SOL     MW10436   3.469   5.532   2.951  0.0000  0.0000  0.0000
 1408SOL     OW10437   1.070   6.130   6.139  0.0000  0.0000  0.0000
 1408SOL    HW110438   0.983   6.113   6.174  0.0000  0.0000  0.0000
 1408SOL    HW210439   1.072   6.224   6.124  0.0000  0.0000  0.0000
 1408SOL     MW10440   1.059   6.140   6.141  0.0000  0.0000  0.0000
 1409SOL     OW10441   4.423   5.151   1.931  0.0000  0.0000  0.0000
 1409SOL    HW110442   4.335   5.127   1.903  0.0000  0.0000  0.0000
 1409SOL    HW210443   4.442   5.092   2.003  0.0000  0.0000  0.0000
 1409SOL     MW10444   4.414   5.140   1.937  0.0000  0.0000  0.0000
 1410SOL     OW10445   2.699   7.115   1.544  0.0000  0.0000  0.0000
 1410SOL    HW110446   2.663   7.183   1.601  0.0000  0.0000  0.0000
 1410SOL    HW210447   2.639   7.041   1.555  0.0000  0.0000  0.0000
 1410SOL     MW10448   2.686   7.114   1.553  0.0000  0.0000  0.0000
 1411SOL     OW10449   2.814   3.582   1.734  0.0000  0.0000  0.0000
 1411SOL    HW110450   2.737   3.525   1.736  0.0000  0.0000  0.0000
 1411SOL    HW210451   2.833   3.600   1.826  0.0000  0.0000  0.0000
 1411SOL     MW10452   2.806   3.577   1.746  0.0000  0.0000  0.0000
 1412SOL     OW10453   0.407   2.903   2.052  0.0000  0.0000  0.0000
 1412SOL    HW110454   0.378   2.838   2.117  0.0000  0.0000  0.0000
 1412SOL    HW210455   0.500   2.884   2.040  0.0000  0.0000  0.0000
 1412SOL     MW10456   0.416   2.892   2.059  0.0000  0.0000  0.0000
 1413SOL     OW10457   4.213   5.918   6.244  0.0000  0.0000  0.0000
 1413SOL    HW110458   4.211   5.823   6.231  0.0000  0.0000  0.0000
 1413SOL    HW210459   4.126   5.947   6.216  0.0000  0.0000  0.0000
 1413SOL     MW10460   4.201   5.909   6.239  0.0000  0.0000  0.0000
 1414SOL     OW10461   0.450   5.100   1.551  0.0000  0.0000  0.0000
 1414SOL    HW110462   0.545   5.099   1.553  0.0000  0.0000  0.0000
 1414SOL    HW210463   0.425   5.008   1.555  0.0000  0.0000  0.0000
 1414SOL     MW10464   0.459   5.088   1.552  0.0000  0.0000  0.0000
 1415SOL     OW10465   3.975   2.603   1.660  0.0000  0.0000  0.0000
 1415SOL    HW110466   3.903   2.643   1.611  0.0000  0.0000  0.0000
 1415SOL    HW210467   3.977   2.651   1.743  0.0000  0.0000  0.0000
 1415SOL     MW10468   3.966   2.615   1.664  0.0000  0.0000  0.0000
 1416SOL     OW10469   4.509   2.863   5.128  0.0000  0.0000  0.0000
 1416SOL    HW110470   4.550   2.804   5.064  0.0000  0.0000  0.0000
 1416SOL    HW210471   4.473   2.805   5.194  0.0000  0.0000  0.0000
 1416SOL     MW10472   4.510   2.848   5.128  0.0000  0.0000  0.0000
 1417SOL     OW10473   4.580   4.756   4.221  0.0000  0.0000  0.0000
 1417SOL    HW110474   4.542   4.704   4.291  0.0000  0.0000  0.0000
 1417SOL    HW210475   4.510   4.817   4.196  0.0000  0.0000  0.0000
 1417SOL     MW10476   4.566   4.757   4.227  0.0000  0.0000  0.0000
 1418SOL     OW10477   2.329   5.861   1.696  0.0000  0.0000  0.0000
 1418SOL    HW110478   2.268   5.808   1.747  0.0000  0.0000  0.0000
 1418SOL    HW210479   2.307   5.951   1.718  0.0000  0.0000  0.0000
 1418SOL     MW10480   2.318   5.866   1.706  0.0000  0.0000  0.0000
 1419SOL     OW10481   1.486   7.082   6.247  0.0000  0.0000  0.0000
 1419SOL    HW110482   1.545   7.097   6.172  0.0000  0.0000  0.0000
 1419SOL    HW210483   1.411   7.139   6.230  0.0000  0.0000  0.0000
 1419SOL     MW10484   1.484   7.091   6.235  0.0000  0.0000  0.0000
 1420SOL     OW10485   4.570   6.313   6.274  0.0000  0.0000  0.0000
 1420SOL    HW110486   4.588   6.286   6.183  0.0000  0.0000  0.0000
 1420SOL    HW210487   4.527   6.398   6.265  0.0000  0.0000  0.0000
 1420SOL     MW10488   4.567   6.321   6.261  0.0000  0.0000  0.0000
 1421SOL     OW10489   1.946   3.611   3.387  0.0000  0.0000  0.0000
 1421SOL    HW110490   1.883   3.622   3.315  0.0000  0.0000  0.0000
 1421SOL    HW210491   1.891   3.598   3.465  0.0000  0.0000  0.0000
 1421SOL     MW10492   1.930   3.611   3.388  0.0000  0.0000  0.0000
 1422SOL     OW10493   2.153   5.423   1.543  0.0000  0.0000  0.0000
 1422SOL    HW110494   2.133   5.418   1.636  0.0000  0.0000  0.0000
 1422SOL    HW210495   2.149   5.516   1.522  0.0000  0.0000  0.0000
 1422SOL     MW10496   2.150   5.435   1.552  0.0000  0.0000  0.0000
 1423SOL     OW10497   1.157   3.873   6.120  0.0000  0.0000  0.0000
 1423SOL    HW110498   1.102   3.895   6.046  0.0000  0.0000  0.0000
 1423SOL    HW210499   1.100   3.824   6.179  0.0000  0.0000  0.0000
 1423SOL     MW10500   1.142   3.869   6.118  0.0000  0.0000  0.0000
 1424SOL     OW10501   2.952   5.839   1.871  0.0000  0.0000  0.0000
 1424SOL    HW110502   3.032   5.788   1.885  0.0000  0.0000  0.0000
 1424SOL    HW210503   2.983   5.929   1.858  0.0000  0.0000  0.0000
 1424SOL     MW10504   2.966   5.844   1.871  0.0000  0.0000  0.0000
 1425SOL     OW10505   0.465   3.420   5.817  0.0000  0.0000  0.0000
 1425SOL    HW110506   0.507   3.346   5.860  0.0000  0.0000  0.0000
 1425SOL    HW210507   0.482   3.494   5.875  0.0000  0.0000  0.0000
 1425SOL     MW10508   0.473   3.420   5.830  0.0000  0.0000  0.0000
 1426SOL     OW10509   3.699   6.600   6.467  0.0000  0.0000  0.0000
 1426SOL    HW110510   3.743   6.567   6.389  0.0000  0.0000  0.0000
 1426SOL    HW210511   3.770   6.629   6.525  0.0000  0.0000  0.0000
 1426SOL     MW10512   3.714   6.600   6.465  0.0000  0.0000  0.0000
 1427SOL     OW10513   0.656   4.066   6.213  0.0000  0.0000  0.0000
 1427SOL    HW110514   0.653   4.087   6.307  0.0000  0.0000  0.0000
 1427SOL    HW210515   0.582   4.007   6.199  0.0000  0.0000  0.0000
 1427SOL     MW10516   0.646   4.061   6.224  0.0000  0.0000  0.0000
 1428SOL     OW10517   4.039   3.325   1.642  0.0000  0.0000  0.0000
 1428SOL    HW110518   4.075   3.237   1.633  0.0000  0.0000  0.0000
 1428SOL    HW210519   4.081   3.359   1.721  0.0000  0.0000  0.0000
 1428SOL     MW10520   4.050   3.318   1.651  0.0000  0.0000  0.0000
 1429SOL     OW10521   0.138   6.536   1.927  0.0000  0.0000  0.0000
 1429SOL    HW110522   0.122   6.483   1.848  0.0000  0.0000  0.0000
 1429SOL    HW210523   0.168   6.620   1.893  0.0000  0.0000  0.0000
 1429SOL     MW10524   0.140   6.540   1.912  0.0000  0.0000  0.0000
 1430SOL     OW10525   0.310   2.898   5.536  0.0000  0.0000  0.0000
 1430SOL    HW110526   0.250   2.861   5.472  0.0000  0.0000  0.0000
 1430SOL    HW210527   0.390   2.914   5.488  0.0000  0.0000  0.0000
 1430SOL     MW10528   0.312   2.895   5.521  0.0000  0.0000  0.0000
 1431SOL     OW10529   2.570   6.675   5.572  0.0000  0.0000  0.0000
 1431SOL    HW110530   2.502   6.608   5.560  0.0000  0.0000  0.0000
 1431SOL    HW210531   2.612   6.652   5.655  0.0000  0.0000  0.0000
 1431SOL     MW10532   2.567   6.663   5.581  0.0000  0.0000  0.0000
 1432SOL     OW10533   1.675   4.373   6.032  0.0000  0.0000  0.0000
 1432SOL    HW110534   1.681   4.449   6.091  0.0000  0.0000  0.0000
 1432SOL    HW210535   1.618   4.403   5.962  0.0000  0.0000  0.0000
 1432SOL     MW10536   1.668   4.387   6.031  0.0000  0.0000  0.0000
 1433SOL     OW10537   3.816   4.858   2.254  0.0000  0.0000  0.0000
 1433SOL    HW110538   3.752   4.829   2.319  0.0000  0.0000  0.0000
 1433SOL    HW210539   3.776   4.937   2.216  0.0000  0.0000  0.0000
 1433SOL     MW10540   3.802   4.865   2.257  0.0000  0.0000  0.0000
 1434SOL     OW10541   1.271   5.236   6.088  0.0000  0.0000  0.0000
 1434SOL    HW110542   1.338   5.222   6.155  0.0000  0.0000  0.0000
 1434SOL    HW210543   1.312   5.204   6.007  0.0000  0.0000  0.0000
 1434SOL     MW10544   1.286   5.230   6.086  0.0000  0.0000  0.0000
 1435SOL     OW10545   1.326   3.675   2.576  0.0000  0.0000  0.0000
 1435SOL    HW110546   1.296   3.723   2.499  0.0000  0.0000  0.0000
 1435SOL    HW210547   1.418   3.697   2.585  0.0000  0.0000  0.0000
 1435SOL     MW10548   1.334   3.684   2.567  0.0000  0.0000  0.0000
 1436SOL     OW10549   2.278   4.846   6.175  0.0000  0.0000  0.0000
 1436SOL    HW110550   2.254   4.918   6.116  0.0000  0.0000  0.0000
 1436SOL    HW210551   2.370   4.860   6.196  0.0000  0.0000  0.0000
 1436SOL     MW10552   2.287   4.857   6.170  0.0000  0.0000  0.0000
 1437SOL     OW10553   1.406   4.578   6.271  0.0000  0.0000  0.0000
 1437SOL    HW110554   1.368   4.501   6.314  0.0000  0.0000  0.0000
 1437SOL    HW210555   1.333   4.640   6.264  0.0000  0.0000  0.0000
 1437SOL     MW10556   1.391   4.576   6.276  0.0000  0.0000  0.0000
 1438SOL     OW10557   0.684   4.316   2.172  0.0000  0.0000  0.0000
 1438SOL    HW110558   0.671   4.411   2.162  0.0000  0.0000  0.0000
 1438SOL    HW210559   0.615   4.277   2.118  0.0000  0.0000  0.0000
 1438SOL     MW10560   0.673   4.324   2.163  0.0000  0.0000  0.0000
 1439SOL     OW10561   0.241   5.168   3.225  0.0000  0.0000  0.0000
 1439SOL    HW110562   0.217   5.260   3.212  0.0000  0.0000  0.0000
 1439SOL    HW210563   0.210   5.148   3.314  0.0000  0.0000  0.0000
 1439SOL     MW10564   0.234   5.178   3.235  0.0000  0.0000  0.0000
 1440SOL     OW10565   4.074   2.759   5.868  0.0000  0.0000  0.0000
 1440SOL    HW110566   4.122   2.812   5.931  0.0000  0.0000  0.0000
 1440SOL    HW210567   4.060   2.675   5.913  0.0000  0.0000  0.0000
 1440SOL     MW10568   4.078   2.755   5.882  0.0000  0.0000  0.0000
 1441SOL     OW10569   4.357   6.114   5.813  0.0000  0.0000  0.0000
 1441SOL    HW110570   4.377   6.203   5.786  0.0000  0.0000  0.0000
 1441SOL    HW210571   4.267   6.099   5.784  0.0000  0.0000  0.0000
 1441SOL     MW10572   4.348   6.124   5.806  0.0000  0.0000  0.0000
 1442SOL     OW10573   3.976   6.972   1.732  0.0000  0.0000  0.0000
 1442SOL    HW110574   3.926   6.913   1.677  0.0000  0.0000  0.0000
 1442SOL    HW210575   3.956   7.059   1.698  0.0000  0.0000  0.0000
 1442SOL     MW10576   3.967   6.976   1.720  0.0000  0.0000  0.0000
 1443SOL     OW10577   0.789   6.275   5.472  0.0000  0.0000  0.0000
 1443SOL    HW110578   0.761   6.271   5.381  0.0000  0.0000  0.0000
 1443SOL    HW210579   0.815   6.185   5.493  0.0000  0.0000  0.0000
 1443SOL     MW10580   0.789   6.262   5.463  0.0000  0.0000  0.0000
 1444SOL     OW10581   0.748   2.983   6.262  0.0000  0.0000  0.0000
 1444SOL    HW110582   0.660   2.948   6.248  0.0000  0.0000  0.0000
 1444SOL    HW210583   0.743   3.073   6.230  0.0000  0.0000  0.0000
 1444SOL     MW10584   0.736   2.991   6.256  0.0000  0.0000  0.0000
 1445SOL     OW10585   0.413   6.141   6.158  0.0000  0.0000  0.0000
 1445SOL    HW110586   0.319   6.124   6.157  0.0000  0.0000  0.0000
 1445SOL    HW210587   0.421   6.235   6.140  0.0000  0.0000  0.0000
 1445SOL     MW10588   0.402   6.152   6.155  0.0000  0.0000  0.0000
 1446SOL     OW10589   4.432   3.466   2.062  0.0000  0.0000  0.0000
 1446SOL    HW110590   4.398   3.556   2.060  0.0000  0.0000  0.0000
 1446SOL    HW210591   4.399   3.430   2.144  0.0000  0.0000  0.0000
 1446SOL     MW10592   4.423   3.473   2.073  0.0000  0.0000  0.0000
 1447SOL     OW10593   2.971   5.905   2.592  0.0000  0.0000  0.0000
 1447SOL    HW110594   2.928   5.893   2.508  0.0000  0.0000  0.0000
 1447SOL    HW210595   2.962   5.999   2.611  0.0000  0.0000  0.0000
 1447SOL     MW10596   2.964   5.916   2.583  0.0000  0.0000  0.0000
 1448SOL     OW10597   2.593   5.788   1.710  0.0000  0.0000  0.0000
 1448SOL    HW110598   2.500   5.808   1.710  0.0000  0.0000  0.0000
 1448SOL    HW210599   2.622   5.810   1.799  0.0000  0.0000  0.0000
 1448SOL     MW10600   2.585   5.794   1.722  0.0000  0.0000  0.0000
 1449SOL     OW10601   3.035   3.001   1.881  0.0000  0.0000  0.0000
 1449SOL    HW110602   3.076   2.980   1.965  0.0000  0.0000  0.0000
 1449SOL    HW210603   3.076   2.941   1.819  0.0000  0.0000  0.0000
 1449SOL     MW10604   3.046   2.990   1.884  0.0000  0.0000  0.0000
 1450SOL     OW10605   3.617   7.187   6.221  0.0000  0.0000  0.0000
 1450SOL    HW110606   3.586   7.100   6.195  0.0000  0.0000  0.0000
 1450SOL    HW210607   3.553   7.217   6.286  0.0000  0.0000  0.0000
 1450SOL     MW10608   3.604   7.179   6.226  0.0000  0.0000  0.0000
 1451SOL     OW10609   0.826   4.941   2.494  0.0000  0.0000  0.0000
 1451SOL    HW110610   0.905   4.989   2.517  0.0000  0.0000  0.0000
 1451SOL    HW210611   0.754   4.995   2.527  0.0000  0.0000  0.0000
 1451SOL     MW10612   0.827   4.954   2.502  0.0000  0.0000  0.0000
 1452SOL     OW10613   4.359   5.471   5.235  0.0000  0.0000  0.0000
 1452SOL    HW110614   4.331   5.470   5.144  0.0000  0.0000  0.0000
 1452SOL    HW210615   4.447   5.433   5.234  0.0000  0.0000  0.0000
 1452SOL     MW10616   4.367   5.466   5.223  0.0000  0.0000  0.0000
 1453SOL     OW10617   1.320   6.481   3.985  0.0000  0.0000  0.0000
 1453SOL    HW110618   1.286   6.519   3.905  0.0000  0.0000  0.0000
 1453SOL    HW210619   1.300   6.545   4.053  0.0000  0.0000  0.0000
 1453SOL     MW10620   1.313   6.494   3.984  0.0000  0.0000  0.0000
 1454SOL     OW10621   2.658   4.387   1.715  0.0000  0.0000  0.0000
 1454SOL    HW110622   2.663   4.301   1.674  0.0000  0.0000  0.0000
 1454SOL    HW210623   2.720   4.382   1.788  0.0000  0.0000  0.0000
 1454SOL     MW10624   2.667   4.375   1.719  0.0000  0.0000  0.0000
 1455SOL     OW10625   0.598   4.987   4.412  0.0000  0.0000  0.0000
 1455SOL    HW110626   0.590   4.956   4.503  0.0000  0.0000  0.0000
 1455SOL    HW210627   0.513   5.027   4.394  0.0000  0.0000  0.0000
 1455SOL     MW10628   0.586   4.988   4.422  0.0000  0.0000  0.0000
 1456SOL     OW10629   2.319   6.739   5.171  0.0000  0.0000  0.0000
 1456SOL    HW110630   2.354   6.806   5.112  0.0000  0.0000  0.0000
 1456SOL    HW210631   2.228   6.728   5.145  0.0000  0.0000  0.0000
 1456SOL     MW10632   2.312   6.746   5.160  0.0000  0.0000  0.0000
 1457SOL     OW10633   3.825   7.014   5.985  0.0000  0.0000  0.0000
 1457SOL    HW110634   3.828   6.956   5.909  0.0000  0.0000  0.0000
 1457SOL    HW210635   3.907   7.064   5.980  0.0000  0.0000  0.0000
 1457SOL     MW10636   3.836   7.013   5.974  0.0000  0.0000  0.0000
 1458SOL     OW10637   1.916   2.799   5.515  0.0000  0.0000  0.0000
 1458SOL    HW110638   1.872   2.728   5.562  0.0000  0.0000  0.0000
 1458SOL    HW210639   1.862   2.813   5.437  0.0000  0.0000  0.0000
 1458SOL     MW10640   1.903   2.792   5.511  0.0000  0.0000  0.0000
 1459SOL     OW10641   4.076   6.246   3.149  0.0000  0.0000  0.0000
 1459SOL    HW110642   4.071   6.330   3.195  0.0000  0.0000  0.0000
 1459SOL    HW210643   4.024   6.186   3.203  0.0000  0.0000  0.0000
 1459SOL     MW10644   4.069   6.249   3.162  0.0000  0.0000  0.0000
 1460SOL     OW10645   4.165   5.066   1.843  0.0000  0.0000  0.0000
 1460SOL    HW110646   4.078   5.089   1.875  0.0000  0.0000  0.0000
 1460SOL    HW210647   4.164   5.089   1.750  0.0000  0.0000  0.0000
 1460SOL     MW10648   4.153   5.072   1.835  0.0000  0.0000  0.0000
 1461SOL     OW10649   3.715   3.328   3.280  0.0000  0.0000  0.0000
 1461SOL    HW110650   3.790   3.384   3.302  0.0000  0.0000  0.0000
 1461SOL    HW210651   3.664   3.323   3.362  0.0000  0.0000  0.0000
 1461SOL     MW10652   3.718   3.335   3.294  0.0000  0.0000  0.0000
 1462SOL     OW10653   2.477   2.723   6.176  0.0000  0.0000  0.0000
 1462SOL    HW110654   2.506   2.814   6.167  0.0000  0.0000  0.0000
 1462SOL    HW210655   2.556   2.675   6.200  0.0000  0.0000  0.0000
 1462SOL     MW10656   2.491   2.729   6.178  0.0000  0.0000  0.0000
 1463SOL     OW10657   2.764   6.618   2.164  0.0000  0.0000  0.0000
 1463SOL    HW110658   2.676   6.596   2.134  0.0000  0.0000  0.0000
 1463SOL    HW210659   2.758   6.711   2.188  0.0000  0.0000  0.0000
 1463SOL     MW10660   2.751   6.628   2.164  0.0000  0.0000  0.0000
 1464SOL     OW10661   0.473   6.404   6.190  0.0000  0.0000  0.0000
 1464SOL    HW110662   0.425   6.482   6.162  0.0000  0.0000  0.0000
 1464SOL    HW210663   0.565   6.428   6.180  0.0000  0.0000  0.0000
 1464SOL     MW10664   0.478   6.418   6.185  0.0000  0.0000  0.0000
 1465SOL     OW10665   3.397   6.751   3.387  0.0000  0.0000  0.0000
 1465SOL    HW110666   3.440   6.683   3.439  0.0000  0.0000  0.0000
 1465SOL    HW210667   3.455   6.763   3.311  0.0000  0.0000  0.0000
 1465SOL     MW10668   3.411   6.744   3.384  0.0000  0.0000  0.0000
 1466SOL     OW10669   0.740   6.475   6.151  0.0000  0.0000  0.0000
 1466SOL    HW110670   0.825   6.452   6.113  0.0000  0.0000  0.0000
 1466SOL    HW210671   0.755   6.561   6.191  0.0000  0.0000  0.0000
 1466SOL     MW10672   0.753   6.484   6.151  0.0000  0.0000  0.0000
 1467SOL     OW10673   1.017   6.401   6.087  0.0000  0.0000  0.0000
 1467SOL    HW110674   1.045   6.489   6.112  0.0000  0.0000  0.0000
 1467SOL    HW210675   1.044   6.392   5.996  0.0000  0.0000  0.0000
 1467SOL     MW10676   1.024   6.411   6.078  0.0000  0.0000  0.0000
 1468SOL     OW10677   4.590   6.743   4.393  0.0000  0.0000  0.0000
 1468SOL    HW110678   4.662   6.690   4.359  0.0000  0.0000  0.0000
 1468SOL    HW210679   4.516   6.684   4.396  0.0000  0.0000  0.0000
 1468SOL     MW10680   4.590   6.728   4.389  0.0000  0.0000  0.0000
 1469SOL     OW10681   1.915   3.225   6.413  0.0000  0.0000  0.0000
 1469SOL    HW110682   1.997   3.257   6.375  0.0000  0.0000  0.0000
 1469SOL    HW210683   1.886   3.156   6.353  0.0000  0.0000  0.0000
 1469SOL     MW10684   1.922   3.220   6.400  0.0000  0.0000  0.0000
 1470SOL     OW10685   2.704   7.026   6.364  0.0000  0.0000  0.0000
 1470SOL    HW110686   2.741   6.939   6.349  0.0000  0.0000  0.0000
 1470SOL    HW210687   2.611   7.015   6.345  0.0000  0.0000  0.0000
 1470SOL     MW10688   2.697   7.013   6.360  0.0000  0.0000  0.0000
 1471SOL     OW10689   0.799   3.831   6.183  0.0000  0.0000  0.0000
 1471SOL    HW110690   0.743   3.760   6.213  0.0000  0.0000  0.0000
 1471SOL    HW210691   0.745   3.910   6.195  0.0000  0.0000  0.0000
 1471SOL     MW10692   0.784   3.832   6.189  0.0000  0.0000  0.0000
 1472SOL     OW10693   4.052   4.798   1.895  0.0000  0.0000  0.0000
 1472SOL    HW110694   4.107   4.866   1.855  0.0000  0.0000  0.0000
 1472SOL    HW210695   4.058   4.724   1.835  0.0000  0.0000  0.0000
 1472SOL     MW10696   4.060   4.797   1.882  0.0000  0.0000  0.0000
 1473SOL     OW10697   2.107   3.467   1.651  0.0000  0.0000  0.0000
 1473SOL    HW110698   2.038   3.413   1.612  0.0000  0.0000  0.0000
 1473SOL    HW210699   2.159   3.496   1.576  0.0000  0.0000  0.0000
 1473SOL     MW10700   2.105   3.464   1.636  0.0000  0.0000  0.0000
 1474SOL     OW10701   1.139   3.226   6.272  0.0000  0.0000  0.0000
 1474SOL    HW110702   1.224   3.268   6.284  0.0000  0.0000  0.0000
 1474SOL    HW210703   1.125   3.176   6.352  0.0000  0.0000  0.0000
 1474SOL     MW10704   1.148   3.225   6.284  0.0000  0.0000  0.0000
 1475SOL     OW10705   1.415   6.154   1.592  0.0000  0.0000  0.0000
 1475SOL    HW110706   1.479   6.087   1.570  0.0000  0.0000  0.0000
 1475SOL    HW210707   1.451   6.199   1.668  0.0000  0.0000  0.0000
 1475SOL     MW10708   1.428   6.151   1.599  0.0000  0.0000  0.0000
 1476SOL     OW10709   4.337   3.801   2.274  0.0000  0.0000  0.0000
 1476SOL    HW110710   4.278   3.877   2.282  0.0000  0.0000  0.0000
 1476SOL    HW210711   4.288   3.729   2.314  0.0000  0.0000  0.0000
 1476SOL     MW10712   4.322   3.802   2.281  0.0000  0.0000  0.0000
 1477SOL     OW10713   0.458   3.297   6.155  0.0000  0.0000  0.0000
 1477SOL    HW110714   0.524   3.259   6.097  0.0000  0.0000  0.0000
 1477SOL    HW210715   0.455   3.237   6.230  0.0000  0.0000  0.0000
 1477SOL     MW10716   0.466   3.284   6.157  0.0000  0.0000  0.0000
 1478SOL     OW10717   1.556   6.654   3.460  0.0000  0.0000  0.0000
 1478SOL    HW110718   1.607   6.733   3.442  0.0000  0.0000  0.0000
 1478SOL    HW210719   1.539   6.656   3.554  0.0000  0.0000  0.0000
 1478SOL     MW10720   1.560   6.664   3.470  0.0000  0.0000  0.0000
 1479SOL     OW10721   1.407   3.065   3.595  0.0000  0.0000  0.0000
 1479SOL    HW110722   1.350   3.108   3.659  0.0000  0.0000  0.0000
 1479SOL    HW210723   1.466   3.133   3.565  0.0000  0.0000  0.0000
 1479SOL     MW10724   1.407   3.080   3.599  0.0000  0.0000  0.0000
 1480SOL     OW10725   2.688   5.088   6.306  0.0000  0.0000  0.0000
 1480SOL    HW110726   2.729   5.048   6.383  0.0000  0.0000  0.0000
 1480SOL    HW210727   2.638   5.016   6.265  0.0000  0.0000  0.0000
 1480SOL     MW10728   2.687   5.073   6.311  0.0000  0.0000  0.0000
 1481SOL     OW10729   0.036   5.478   5.977  0.0000  0.0000  0.0000
 1481SOL    HW110730   0.060   5.523   6.058  0.0000  0.0000  0.0000
 1481SOL    HW210731   0.048   5.544   5.908  0.0000  0.0000  0.0000
 1481SOL     MW10732   0.041   5.493   5.979  0.0000  0.0000  0.0000
 1482SOL     OW10733   0.440   7.090   6.410  0.0000  0.0000  0.0000
 1482SOL    HW110734   0.507   7.028   6.439  0.0000  0.0000  0.0000
 1482SOL    HW210735   0.487   7.173   6.402  0.0000  0.0000  0.0000
 1482SOL     MW10736   0.455   7.093   6.413  0.0000  0.0000  0.0000
 1483SOL     OW10737   3.388   5.253   2.949  0.0000  0.0000  0.0000
 1483SOL    HW110738   3.417   5.336   2.911  0.0000  0.0000  0.0000
 1483SOL    HW210739   3.445   5.239   3.024  0.0000  0.0000  0.0000
 1483SOL     MW10740   3.399   5.262   2.954  0.0000  0.0000  0.0000
 1484SOL     OW10741   3.413   2.696   1.807  0.0000  0.0000  0.0000
 1484SOL    HW110742   3.400   2.620   1.863  0.0000  0.0000  0.0000
 1484SOL    HW210743   3.452   2.661   1.727  0.0000  0.0000  0.0000
 1484SOL     MW10744   3.416   2.681   1.804  0.0000  0.0000  0.0000
 1485SOL     OW10745   3.728   7.189   2.115  0.0000  0.0000  0.0000
 1485SOL    HW110746   3.766   7.114   2.070  0.0000  0.0000  0.0000
 1485SOL    HW210747   3.800   7.227   2.165  0.0000  0.0000  0.0000
 1485SOL     MW10748   3.742   7.184   2.116  0.0000  0.0000  0.0000
 1486SOL     OW10749   0.655   6.913   6.436  0.0000  0.0000  0.0000
 1486SOL    HW110750   0.617   6.833   6.473  0.0000  0.0000  0.0000
 1486SOL    HW210751   0.713   6.946   6.505  0.0000  0.0000  0.0000
 1486SOL     MW10752   0.658   6.907   6.450  0.0000  0.0000  0.0000
 1487SOL     OW10753   0.831   6.122   5.887  0.0000  0.0000  0.0000
 1487SOL    HW110754   0.870   6.057   5.829  0.0000  0.0000  0.0000
 1487SOL    HW210755   0.883   6.118   5.968  0.0000  0.0000  0.0000
 1487SOL     MW10756   0.843   6.113   5.890  0.0000  0.0000  0.0000
 1488SOL     OW10757   1.481   6.215   1.874  0.0000  0.0000  0.0000
 1488SOL    HW110758   1.572   6.196   1.852  0.0000  0.0000  0.0000
 1488SOL    HW210759   1.441   6.128   1.888  0.0000  0.0000  0.0000
 1488SOL     MW10760   1.487   6.201   1.873  0.0000  0.0000  0.0000
 1489SOL     OW10761   1.721   6.287   6.279  0.0000  0.0000  0.0000
 1489SOL    HW110762   1.667   6.218   6.241  0.0000  0.0000  0.0000
 1489SOL    HW210763   1.810   6.265   6.254  0.0000  0.0000  0.0000
 1489SOL     MW10764   1.725   6.275   6.271  0.0000  0.0000  0.0000
 1490SOL     OW10765   0.640   4.757   5.134  0.0000  0.0000  0.0000
 1490SOL    HW110766   0.632   4.825   5.067  0.0000  0.0000  0.0000
 1490SOL    HW210767   0.686   4.799   5.207  0.0000  0.0000  0.0000
 1490SOL     MW10768   0.645   4.771   5.135  0.0000  0.0000  0.0000
 1491SOL     OW10769   0.395   2.705   2.251  0.0000  0.0000  0.0000
 1491SOL    HW110770   0.359   2.721   2.339  0.0000  0.0000  0.0000
 1491SOL    HW210771   0.476   2.657   2.267  0.0000  0.0000  0.0000
 1491SOL     MW10772   0.401   2.701   2.265  0.0000  0.0000  0.0000
 1492SOL     OW10773   3.329   4.946   2.216  0.0000  0.0000  0.0000
 1492SOL    HW110774   3.249   4.998   2.207  0.0000  0.0000  0.0000
 1492SOL    HW210775   3.329   4.889   2.139  0.0000  0.0000  0.0000
 1492SOL     MW10776   3.318   4.946   2.205  0.0000  0.0000  0.0000
 1493SOL     OW10777   3.607   6.888   1.903  0.0000  0.0000  0.0000
 1493SOL    HW110778   3.641   6.800   1.917  0.0000  0.0000  0.0000
 1493SOL    HW210779   3.617   6.904   1.809  0.0000  0.0000  0.0000
 1493SOL     MW10780   3.613   6.879   1.893  0.0000  0.0000  0.0000
 1494SOL     OW10781   3.413   4.801   2.005  0.0000  0.0000  0.0000
 1494SOL    HW110782   3.468   4.728   1.976  0.0000  0.0000  0.0000
 1494SOL    HW210783   3.334   4.793   1.952  0.0000  0.0000  0.0000
 1494SOL     MW10784   3.410   4.790   1.994  0.0000  0.0000  0.0000
 1495SOL     OW10785   4.168   3.583   2.373  0.0000  0.0000  0.0000
 1495SOL    HW110786   4.212   3.573   2.458  0.0000  0.0000  0.0000
 1495SOL    HW210787   4.107   3.655   2.385  0.0000  0.0000  0.0000
 1495SOL     MW10788   4.166   3.591   2.386  0.0000  0.0000  0.0000
 1496SOL     OW10789   3.379   7.094   1.976  0.0000  0.0000  0.0000
 1496SOL    HW110790   3.304   7.036   1.966  0.0000  0.0000  0.0000
 1496SOL    HW210791   3.455   7.038   1.961  0.0000  0.0000  0.0000
 1496SOL     MW10792   3.379   7.079   1.973  0.0000  0.0000  0.0000
 1497SOL     OW10793   2.700   5.218   4.763  0.0000  0.0000  0.0000
 1497SOL    HW110794   2.645   5.142   4.781  0.0000  0.0000  0.0000
 1497SOL    HW210795   2.642   5.280   4.720  0.0000  0.0000  0.0000
 1497SOL     MW10796   2.685   5.216   4.760  0.0000  0.0000  0.0000
 1498SOL     OW10797   2.430   3.155   1.754  0.0000  0.0000  0.0000
 1498SOL    HW110798   2.336   3.166   1.743  0.0000  0.0000  0.0000
 1498SOL    HW210799   2.469   3.203   1.680  0.0000  0.0000  0.0000
 1498SOL     MW10800   2.423   3.163   1.743  0.0000  0.0000  0.0000
 1499SOL     OW10801   2.688   7.132   2.439  0.0000  0.0000  0.0000
 1499SOL    HW110802   2.678   7.190   2.363  0.0000  0.0000  0.0000
 1499SOL    HW210803   2.650   7.181   2.512  0.0000  0.0000  0.0000
 1499SOL     MW10804   2.682   7.146   2.439  0.0000  0.0000  0.0000
 1500SOL     OW10805   3.720   3.207   2.421  0.0000  0.0000  0.0000
 1500SOL    HW110806   3.669   3.194   2.341  0.0000  0.0000  0.0000
 1500SOL    HW210807   3.693   3.135   2.479  0.0000  0.0000  0.0000
 1500SOL     MW10808   3.710   3.196   2.418  0.0000  0.0000  0.0000
 1501SOL     OW10809   0.983   6.070   1.908  0.0000  0.0000  0.0000
 1501SOL    HW110810   1.015   6.103   1.992  0.0000  0.0000  0.0000
 1501SOL    HW210811   1.062   6.056   1.856  0.0000  0.0000  0.0000
 1501SOL     MW10812   0.998   6.073   1.912  0.0000  0.0000  0.0000
 1502SOL     OW10813   3.629   4.659   1.869  0.0000  0.0000  0.0000
 1502SOL    HW110814   3.671   4.744   1.865  0.0000  0.0000  0.0000
 1502SOL    HW210815   3.667   4.617   1.946  0.0000  0.0000  0.0000
 1502SOL     MW10816   3.639   4.665   1.879  0.0000  0.0000  0.0000
 1503SOL     OW10817   2.109   3.896   1.876  0.0000  0.0000  0.0000
 1503SOL    HW110818   2.126   3.851   1.959  0.0000  0.0000  0.0000
 1503SOL    HW210819   2.046   3.840   1.832  0.0000  0.0000  0.0000
 1503SOL     MW10820   2.103   3.883   1.881  0.0000  0.0000  0.0000
 1504SOL     OW10821   3.086   7.042   6.456  0.0000  0.0000  0.0000
 1504SOL    HW110822   3.103   7.112   6.393  0.0000  0.0000  0.0000
 1504SOL    HW210823   3.009   7.072   6.505  0.0000  0.0000  0.0000
 1504SOL     MW10824   3.078   7.055   6.454  0.0000  0.0000  0.0000
 1505SOL     OW10825   1.059   3.346   2.359  0.0000  0.0000  0.0000
 1505SOL    HW110826   1.127   3.370   2.422  0.0000  0.0000  0.0000
 1505SOL    HW210827   1.082   3.257   2.332  0.0000  0.0000  0.0000
 1505SOL     MW10828   1.071   3.337   2.364  0.0000  0.0000  0.0000
 1506SOL     OW10829   2.153   3.213   1.778  0.0000  0.0000  0.0000
 1506SOL    HW110830   2.073   3.173   1.743  0.0000  0.0000  0.0000
 1506SOL    HW210831   2.157   3.300   1.738  0.0000  0.0000  0.0000
 1506SOL     MW10832   2.143   3.219   1.768  0.0000  0.0000  0.0000
 1507SOL     OW10833   1.205   5.865   2.607  0.0000  0.0000  0.0000
 1507SOL    HW110834   1.124   5.863   2.659  0.0000  0.0000  0.0000
 1507SOL    HW210835   1.260   5.928   2.652  0.0000  0.0000  0.0000
 1507SOL     MW10836   1.201   5.873   2.620  0.0000  0.0000  0.0000
 1508SOL     OW10837   0.049   2.774   6.009  0.0000  0.0000  0.0000
 1508SOL    HW110838   0.018   2.734   5.928  0.0000  0.0000  0.0000
 1508SOL    HW210839  -0.008   2.851   6.021  0.0000  0.0000  0.0000
 1508SOL     MW10840   0.037   2.779   6.000  0.0000  0.0000  0.0000
 1509SOL     OW10841   3.042   5.622   1.632  0.0000  0.0000  0.0000
 1509SOL    HW110842   2.970   5.566   1.605  0.0000  0.0000  0.0000
 1509SOL    HW210843   3.120   5.579   1.598  0.0000  0.0000  0.0000
 1509SOL     MW10844   3.043   5.609   1.624  0.0000  0.0000  0.0000
 1510SOL     OW10845   3.455   2.822   2.920  0.0000  0.0000  0.0000
 1510SOL    HW110846   3.549   2.807   2.927  0.0000  0.0000  0.0000
 1510SOL    HW210847   3.427   2.843   3.010  0.0000  0.0000  0.0000
 1510SOL     MW10848   3.463   2.822   2.933  0.0000  0.0000  0.0000
 1511SOL     OW10849   2.640   6.970   1.873  0.0000  0.0000  0.0000
 1511SOL    HW110850   2.593   6.909   1.930  0.0000  0.0000  0.0000
 1511SOL    HW210851   2.732   6.958   1.895  0.0000  0.0000  0.0000
 1511SOL     MW10852   2.646   6.960   1.883  0.0000  0.0000  0.0000
 1512SOL     OW10853   3.807   3.098   2.029  0.0000  0.0000  0.0000
 1512SOL    HW110854   3.724   3.117   2.073  0.0000  0.0000  0.0000
 1512SOL    HW210855   3.795   3.132   1.940  0.0000  0.0000  0.0000
 1512SOL     MW10856   3.794   3.105   2.023  0.0000  0.0000  0.0000
 1513SOL     OW10857   2.144   6.521   1.651  0.0000  0.0000  0.0000
 1513SOL    HW110858   2.094   6.523   1.733  0.0000  0.0000  0.0000
 1513SOL    HW210859   2.229   6.559   1.673  0.0000  0.0000  0.0000
 1513SOL     MW10860   2.149   6.526   1.665  0.0000  0.0000  0.0000
 1514SOL     OW10861   1.771   4.592   6.440  0.0000  0.0000  0.0000
 1514SOL    HW110862   1.827   4.554   6.371  0.0000  0.0000  0.0000
 1514SOL    HW210863   1.750   4.680   6.407  0.0000  0.0000  0.0000
 1514SOL     MW10864   1.776   4.598   6.426  0.0000  0.0000  0.0000
 1515SOL     OW10865   3.468   5.943   6.229  0.0000  0.0000  0.0000
 1515SOL    HW110866   3.429   5.947   6.317  0.0000  0.0000  0.0000
 1515SOL    HW210867   3.530   6.016   6.228  0.0000  0.0000  0.0000
 1515SOL     MW10868   3.471   5.953   6.241  0.0000  0.0000  0.0000
 1516SOL     OW10869   1.851   6.467   2.497  0.0000  0.0000  0.0000
 1516SOL    HW110870   1.761   6.440   2.512  0.0000  0.0000  0.0000
 1516SOL    HW210871   1.859   6.550   2.544  0.0000  0.0000  0.0000
 1516SOL     MW10872   1.840   6.474   2.505  0.0000  0.0000  0.0000
 1517SOL     OW10873   0.905   6.913   1.792  0.0000  0.0000  0.0000
 1517SOL    HW110874   0.980   6.973   1.791  0.0000  0.0000  0.0000
 1517SOL    HW210875   0.939   6.830   1.759  0.0000  0.0000  0.0000
 1517SOL     MW10876   0.919   6.910   1.788  0.0000  0.0000  0.0000
 1518SOL     OW10877   0.929   7.014   5.940  0.0000  0.0000  0.0000
 1518SOL    HW110878   0.860   6.997   6.004  0.0000  0.0000  0.0000
 1518SOL    HW210879   0.882   7.048   5.864  0.0000  0.0000  0.0000
 1518SOL     MW10880   0.914   7.016   5.938  0.0000  0.0000  0.0000
 1519SOL     OW10881   2.670   6.201   1.955  0.0000  0.0000  0.0000
 1519SOL    HW110882   2.737   6.260   1.992  0.0000  0.0000  0.0000
 1519SOL    HW210883   2.587   6.237   1.986  0.0000  0.0000  0.0000
 1519SOL     MW10884   2.668   6.214   1.964  0.0000  0.0000  0.0000
 1520SOL     OW10885   4.042   4.749   2.167  0.0000  0.0000  0.0000
 1520SOL    HW110886   3.969   4.794   2.210  0.0000  0.0000  0.0000
 1520SOL    HW210887   4.044   4.786   2.079  0.0000  0.0000  0.0000
 1520SOL     MW10888   4.033   4.760   2.161  0.0000  0.0000  0.0000
 1521SOL     OW10889   4.390   6.196   4.839  0.0000  0.0000  0.0000
 1521SOL    HW110890   4.485   6.209   4.849  0.0000  0.0000  0.0000
 1521SOL    HW210891   4.351   6.249   4.909  0.0000  0.0000  0.0000
 1521SOL     MW10892   4.398   6.205   4.849  0.0000  0.0000  0.0000
 1522SOL     OW10893   2.345   7.065   2.085  0.0000  0.0000  0.0000
 1522SOL    HW110894   2.426   7.116   2.081  0.0000  0.0000  0.0000
 1522SOL    HW210895   2.372   6.976   2.065  0.0000  0.0000  0.0000
 1522SOL     MW10896   2.359   7.060   2.082  0.0000  0.0000  0.0000
 1523SOL     OW10897   4.254   6.735   1.991  0.0000  0.0000  0.0000
 1523SOL    HW110898   4.332   6.774   2.031  0.0000  0.0000  0.0000
 1523SOL    HW210899   4.288   6.659   1.943  0.0000  0.0000  0.0000
 1523SOL     MW10900   4.269   6.730   1.990  0.0000  0.0000  0.0000
 1524SOL     OW10901   0.154   4.899   4.295  0.0000  0.0000  0.0000
 1524SOL    HW110902   0.096   4.834   4.255  0.0000  0.0000  0.0000
 1524SOL    HW210903   0.103   4.935   4.367  0.0000  0.0000  0.0000
 1524SOL     MW10904   0.139   4.895   4.299  0.0000  0.0000  0.0000
 1525SOL     OW10905   1.048   5.713   6.270  0.0000  0.0000  0.0000
 1525SOL    HW110906   1.099   5.779   6.223  0.0000  0.0000  0.0000
 1525SOL    HW210907   1.031   5.645   6.205  0.0000  0.0000  0.0000
 1525SOL     MW10908   1.052   5.713   6.255  0.0000  0.0000  0.0000
 1526SOL     OW10909   2.426   4.404   1.879  0.0000  0.0000  0.0000
 1526SOL    HW110910   2.489   4.398   1.808  0.0000  0.0000  0.0000
 1526SOL    HW210911   2.474   4.448   1.950  0.0000  0.0000  0.0000
 1526SOL     MW10912   2.440   4.409   1.879  0.0000  0.0000  0.0000
 1527SOL     OW10913   1.255   2.771   2.018  0.0000  0.0000  0.0000
 1527SOL    HW110914   1.291   2.837   1.959  0.0000  0.0000  0.0000
 1527SOL    HW210915   1.296   2.689   1.990  0.0000  0.0000  0.0000
 1527SOL     MW10916   1.265   2.769   2.006  0.0000  0.0000  0.0000
 1528SOL     OW10917   3.064   2.590   5.607  0.0000  0.0000  0.0000
 1528SOL    HW110918   2.977   2.630   5.608  0.0000  0.0000  0.0000
 1528SOL    HW210919   3.049   2.500   5.636  0.0000  0.0000  0.0000
 1528SOL     MW10920   3.051   2.583   5.611  0.0000  0.0000  0.0000
 1529SOL     OW10921   2.131   2.601   5.686  0.0000  0.0000  0.0000
 1529SOL    HW110922   2.080   2.654   5.748  0.0000  0.0000  0.0000
 1529SOL    HW210923   2.065   2.564   5.627  0.0000  0.0000  0.0000
 1529SOL     MW10924   2.115   2.603   5.687  0.0000  0.0000  0.0000
 1530SOL     OW10925   2.305   5.077   1.779  0.0000  0.0000  0.0000
 1530SOL    HW110926   2.347   5.012   1.723  0.0000  0.0000  0.0000
 1530SOL    HW210927   2.213   5.052   1.781  0.0000  0.0000  0.0000
 1530SOL     MW10928   2.299   5.065   1.772  0.0000  0.0000  0.0000
 1531SOL     OW10929   0.554   2.989   5.402  0.0000  0.0000  0.0000
 1531SOL    HW110930   0.620   2.949   5.459  0.0000  0.0000  0.0000
 1531SOL    HW210931   0.578   3.081   5.399  0.0000  0.0000  0.0000
 1531SOL     MW10932   0.566   2.996   5.409  0.0000  0.0000  0.0000
 1532SOL     OW10933   1.768   6.441   1.752  0.0000  0.0000  0.0000
 1532SOL    HW110934   1.734   6.504   1.815  0.0000  0.0000  0.0000
 1532SOL    HW210935   1.724   6.463   1.670  0.0000  0.0000  0.0000
 1532SOL     MW10936   1.758   6.452   1.749  0.0000  0.0000  0.0000
 1533SOL     OW10937   0.860   5.525   6.048  0.0000  0.0000  0.0000
 1533SOL    HW110938   0.867   5.575   5.966  0.0000  0.0000  0.0000
 1533SOL    HW210939   0.818   5.443   6.023  0.0000  0.0000  0.0000
 1533SOL     MW10940   0.856   5.521   6.034  0.0000  0.0000  0.0000
 1534SOL     OW10941   2.415   3.317   3.498  0.0000  0.0000  0.0000
 1534SOL    HW110942   2.333   3.340   3.453  0.0000  0.0000  0.0000
 1534SOL    HW210943   2.444   3.398   3.538  0.0000  0.0000  0.0000
 1534SOL     MW10944   2.408   3.330   3.497  0.0000  0.0000  0.0000
 1535SOL     OW10945   0.463   6.768   1.953  0.0000  0.0000  0.0000
 1535SOL    HW110946   0.375   6.772   1.989  0.0000  0.0000  0.0000
 1535SOL    HW210947   0.454   6.800   1.863  0.0000  0.0000  0.0000
 1535SOL     MW10948   0.450   6.773   1.946  0.0000  0.0000  0.0000
 1536SOL     OW10949   1.157   7.024   3.075  0.0000  0.0000  0.0000
 1536SOL    HW110950   1.188   7.097   3.020  0.0000  0.0000  0.0000
 1536SOL    HW210951   1.214   6.951   3.051  0.0000  0.0000  0.0000
 1536SOL     MW10952   1.169   7.024   3.064  0.0000  0.0000  0.0000
 1537SOL     OW10953   3.747   3.012   5.300  0.0000  0.0000  0.0000
 1537SOL    HW110954   3.813   3.080   5.283  0.0000  0.0000  0.0000
 1537SOL    HW210955   3.779   2.966   5.378  0.0000  0.0000  0.0000
 1537SOL     MW10956   3.760   3.015   5.308  0.0000  0.0000  0.0000
 1538SOL     OW10957   3.352   7.051   3.521  0.0000  0.0000  0.0000
 1538SOL    HW110958   3.402   7.053   3.439  0.0000  0.0000  0.0000
 1538SOL    HW210959   3.394   6.982   3.572  0.0000  0.0000  0.0000
 1538SOL     MW10960   3.364   7.042   3.517  0.0000  0.0000  0.0000
 1539SOL     OW10961   3.928   2.798   6.405  0.0000  0.0000  0.0000
 1539SOL    HW110962   3.880   2.777   6.326  0.0000  0.0000  0.0000
 1539SOL    HW210963   3.926   2.894   6.411  0.0000  0.0000  0.0000
 1539SOL     MW10964   3.922   2.808   6.396  0.0000  0.0000  0.0000
 1540SOL     OW10965   3.883   4.817   6.304  0.0000  0.0000  0.0000
 1540SOL    HW110966   3.961   4.806   6.250  0.0000  0.0000  0.0000
 1540SOL    HW210967   3.906   4.778   6.388  0.0000  0.0000  0.0000
 1540SOL     MW10968   3.896   4.810   6.308  0.0000  0.0000  0.0000
 1541SOL     OW10969   3.526   3.909   2.005  0.0000  0.0000  0.0000
 1541SOL    HW110970   3.580   3.833   2.028  0.0000  0.0000  0.0000
 1541SOL    HW210971   3.452   3.905   2.066  0.0000  0.0000  0.0000
 1541SOL     MW10972   3.524   3.899   2.016  0.0000  0.0000  0.0000
 1542SOL     OW10973   2.942   6.971   4.958  0.0000  0.0000  0.0000
 1542SOL    HW110974   2.876   6.978   5.027  0.0000  0.0000  0.0000
 1542SOL    HW210975   2.967   7.061   4.939  0.0000  0.0000  0.0000
 1542SOL     MW10976   2.937   6.984   4.965  0.0000  0.0000  0.0000
 1543SOL     OW10977   3.220   5.891   6.131  0.0000  0.0000  0.0000
 1543SOL    HW110978   3.310   5.918   6.148  0.0000  0.0000  0.0000
 1543SOL    HW210979   3.227   5.826   6.061  0.0000  0.0000  0.0000
 1543SOL     MW10980   3.233   5.886   6.124  0.0000  0.0000  0.0000
 1544SOL     OW10981   1.067   3.580   1.876  0.0000  0.0000  0.0000
 1544SOL    HW110982   1.004   3.508   1.878  0.0000  0.0000  0.0000
 1544SOL    HW210983   1.141   3.550   1.929  0.0000  0.0000  0.0000
 1544SOL     MW10984   1.069   3.566   1.883  0.0000  0.0000  0.0000
 1545SOL     OW10985   1.548   2.971   5.158  0.0000  0.0000  0.0000
 1545SOL    HW110986   1.492   3.028   5.212  0.0000  0.0000  0.0000
 1545SOL    HW210987   1.535   3.002   5.069  0.0000  0.0000  0.0000
 1545SOL     MW10988   1.539   2.983   5.154  0.0000  0.0000  0.0000
 1546SOL     OW10989   0.418   5.672   1.729  0.0000  0.0000  0.0000
 1546SOL    HW110990   0.456   5.627   1.654  0.0000  0.0000  0.0000
 1546SOL    HW210991   0.489   5.676   1.793  0.0000  0.0000  0.0000
 1546SOL     MW10992   0.432   5.666   1.728  0.0000  0.0000  0.0000
 1547SOL     OW10993   2.395   5.757   6.225  0.0000  0.0000  0.0000
 1547SOL    HW110994   2.401   5.762   6.320  0.0000  0.0000  0.0000
 1547SOL    HW210995   2.470   5.806   6.193  0.0000  0.0000  0.0000
 1547SOL     MW10996   2.406   5.764   6.233  0.0000  0.0000  0.0000
 1548SOL     OW10997   2.001   5.259   6.291  0.0000  0.0000  0.0000
 1548SOL    HW110998   2.065   5.209   6.341  0.0000  0.0000  0.0000
 1548SOL    HW210999   1.917   5.233   6.328  0.0000  0.0000  0.0000
 1548SOL     MW11000   1.998   5.249   6.302  0.0000  0.0000  0.0000
 1549SOL     OW11001   1.001   3.054   2.016  0.0000  0.0000  0.0000
 1549SOL    HW111002   1.008   2.959   2.006  0.0000  0.0000  0.0000
 1549SOL    HW211003   1.039   3.089   1.935  0.0000  0.0000  0.0000
 1549SOL     MW11004   1.007   3.046   2.004  0.0000  0.0000  0.0000
 1550SOL     OW11005   4.174   6.839   5.831  0.0000  0.0000  0.0000
 1550SOL    HW111006   4.237   6.907   5.804  0.0000  0.0000  0.0000
 1550SOL    HW211007   4.164   6.852   5.925  0.0000  0.0000  0.0000
 1550SOL     MW11008   4.181   6.850   5.840  0.0000  0.0000  0.0000
 1551SOL     OW11009   2.049   6.308   6.520  0.0000  0.0000  0.0000
 1551SOL    HW111010   2.032   6.388   6.471  0.0000  0.0000  0.0000
 1551SOL    HW211011   2.115   6.261   6.468  0.0000  0.0000  0.0000
 1551SOL     MW11012   2.055   6.312   6.507  0.0000  0.0000  0.0000
 1552SOL     OW11013   1.317   5.142   1.815  0.0000  0.0000  0.0000
 1552SOL    HW111014   1.323   5.046   1.817  0.0000  0.0000  0.0000
 1552SOL    HW211015   1.227   5.160   1.791  0.0000  0.0000  0.0000
 1552SOL     MW11016   1.306   5.132   1.812  0.0000  0.0000  0.0000
 1553SOL     OW11017   3.570   3.141   2.871  0.0000  0.0000  0.0000
 1553SOL    HW111018   3.501   3.178   2.815  0.0000  0.0000  0.0000
 1553SOL    HW211019   3.532   3.060   2.905  0.0000  0.0000  0.0000
 1553SOL     MW11020   3.556   3.135   2.868  0.0000  0.0000  0.0000
 1554SOL     OW11021   3.379   7.005   2.249  0.0000  0.0000  0.0000
 1554SOL    HW111022   3.383   7.021   2.154  0.0000  0.0000  0.0000
 1554SOL    HW211023   3.468   6.977   2.272  0.0000  0.0000  0.0000
 1554SOL     MW11024   3.391   7.003   2.239  0.0000  0.0000  0.0000
 1555SOL     OW11025   3.305   2.619   2.292  0.0000  0.0000  0.0000
 1555SOL    HW111026   3.314   2.526   2.276  0.0000  0.0000  0.0000
 1555SOL    HW211027   3.312   2.628   2.387  0.0000  0.0000  0.0000
 1555SOL     MW11028   3.307   2.608   2.303  0.0000  0.0000  0.0000
 1556SOL     OW11029   2.868   5.922   5.108  0.0000  0.0000  0.0000
 1556SOL    HW111030   2.956   5.950   5.085  0.0000  0.0000  0.0000
 1556SOL    HW211031   2.829   5.896   5.024  0.0000  0.0000  0.0000
 1556SOL     MW11032   2.874   5.922   5.094  0.0000  0.0000  0.0000
 1557SOL     OW11033   1.438   6.856   1.644  0.0000  0.0000  0.0000
 1557SOL    HW111034   1.448   6.789   1.577  0.0000  0.0000  0.0000
 1557SOL    HW211035   1.344   6.872   1.650  0.0000  0.0000  0.0000
 1557SOL     MW11036   1.427   6.849   1.636  0.0000  0.0000  0.0000
 1558SOL     OW11037   4.121   4.901   5.446  0.0000  0.0000  0.0000
 1558SOL    HW111038   4.139   4.932   5.357  0.0000  0.0000  0.0000
 1558SOL    HW211039   4.028   4.878   5.446  0.0000  0.0000  0.0000
 1558SOL     MW11040   4.111   4.902   5.435  0.0000  0.0000  0.0000
 1559SOL     OW11041   4.503   5.647   2.011  0.0000  0.0000  0.0000
 1559SOL    HW111042   4.497   5.577   1.945  0.0000  0.0000  0.0000
 1559SOL    HW211043   4.588   5.633   2.052  0.0000  0.0000  0.0000
 1559SOL     MW11044   4.513   5.636   2.008  0.0000  0.0000  0.0000
 1560SOL     OW11045   1.571   6.743   3.937  0.0000  0.0000  0.0000
 1560SOL    HW111046   1.655   6.781   3.909  0.0000  0.0000  0.0000
 1560SOL    HW211047   1.593   6.692   4.014  0.0000  0.0000  0.0000
 1560SOL     MW11048   1.585   6.742   3.943  0.0000  0.0000  0.0000
 1561SOL     OW11049   0.275   3.517   1.626  0.0000  0.0000  0.0000
 1561SOL    HW111050   0.333   3.463   1.573  0.0000  0.0000  0.0000
 1561SOL    HW211051   0.222   3.454   1.674  0.0000  0.0000  0.0000
 1561SOL     MW11052   0.275   3.502   1.625  0.0000  0.0000  0.0000
 1562SOL     OW11053   1.114   3.470   5.892  0.0000  0.0000  0.0000
 1562SOL    HW111054   1.042   3.411   5.913  0.0000  0.0000  0.0000
 1562SOL    HW211055   1.186   3.412   5.867  0.0000  0.0000  0.0000
 1562SOL     MW11056   1.114   3.455   5.891  0.0000  0.0000  0.0000
 1563SOL     OW11057   3.417   6.567   1.800  0.0000  0.0000  0.0000
 1563SOL    HW111058   3.479   6.578   1.872  0.0000  0.0000  0.0000
 1563SOL    HW211059   3.427   6.475   1.773  0.0000  0.0000  0.0000
 1563SOL     MW11060   3.426   6.556   1.806  0.0000  0.0000  0.0000
 1564SOL     OW11061   2.055   5.568   5.978  0.0000  0.0000  0.0000
 1564SOL    HW111062   2.055   5.497   5.915  0.0000  0.0000  0.0000
 1564SOL    HW211063   2.028   5.645   5.929  0.0000  0.0000  0.0000
 1564SOL     MW11064   2.052   5.569   5.963  0.0000  0.0000  0.0000
 1565SOL     OW11065   0.110   5.563   5.300  0.0000  0.0000  0.0000
 1565SOL    HW111066   0.064   5.616   5.235  0.0000  0.0000  0.0000
 1565SOL    HW211067   0.088   5.604   5.384  0.0000  0.0000  0.0000
 1565SOL     MW11068   0.101   5.576   5.303  0.0000  0.0000  0.0000
 1566SOL     OW11069   4.253   2.894   5.022  0.0000  0.0000  0.0000
 1566SOL    HW111070   4.341   2.870   5.051  0.0000  0.0000  0.0000
 1566SOL    HW211071   4.198   2.886   5.100  0.0000  0.0000  0.0000
 1566SOL     MW11072   4.257   2.890   5.036  0.0000  0.0000  0.0000
 1567SOL     OW11073   3.868   3.111   6.148  0.0000  0.0000  0.0000
 1567SOL    HW111074   3.922   3.038   6.117  0.0000  0.0000  0.0000
 1567SOL    HW211075   3.782   3.096   6.108  0.0000  0.0000  0.0000
 1567SOL     MW11076   3.864   3.100   6.139  0.0000  0.0000  0.0000
 1568SOL     OW11077   2.259   6.767   6.023  0.0000  0.0000  0.0000
 1568SOL    HW111078   2.213   6.801   6.100  0.0000  0.0000  0.0000
 1568SOL    HW211079   2.213   6.807   5.949  0.0000  0.0000  0.0000
 1568SOL     MW11080   2.247   6.777   6.023  0.0000  0.0000  0.0000
 1569SOL     OW11081   3.165   5.684   1.882  0.0000  0.0000  0.0000
 1569SOL    HW111082   3.173   5.609   1.941  0.0000  0.0000  0.0000
 1569SOL    HW211083   3.128   5.648   1.801  0.0000  0.0000  0.0000
 1569SOL     MW11084   3.161   5.669   1.879  0.0000  0.0000  0.0000
 1570SOL     OW11085   2.498   7.039   5.757  0.0000  0.0000  0.0000
 1570SOL    HW111086   2.586   7.025   5.723  0.0000  0.0000  0.0000
 1570SOL    HW211087   2.441   6.991   5.696  0.0000  0.0000  0.0000
 1570SOL     MW11088   2.502   7.031   5.744  0.0000  0.0000  0.0000
 1571SOL     OW11089   4.421   6.564   6.224  0.0000  0.0000  0.0000
 1571SOL    HW111090   4.406   6.587   6.132  0.0000  0.0000  0.0000
 1571SOL    HW211091   4.333   6.551   6.260  0.0000  0.0000  0.0000
 1571SOL     MW11092   4.407   6.565   6.216  0.0000  0.0000  0.0000
 1572SOL     OW11093   2.567   4.528   2.077  0.0000  0.0000  0.0000
 1572SOL    HW111094   2.660   4.544   2.093  0.0000  0.0000  0.0000
 1572SOL    HW211095   2.531   4.506   2.163  0.0000  0.0000  0.0000
 1572SOL     MW11096   2.575   4.527   2.090  0.0000  0.0000  0.0000
 1573SOL     OW11097   3.483   3.794   1.751  0.0000  0.0000  0.0000
 1573SOL    HW111098   3.490   3.822   1.843  0.0000  0.0000  0.0000
 1573SOL    HW211099   3.421   3.856   1.712  0.0000  0.0000  0.0000
 1573SOL     MW11100   3.476   3.806   1.758  0.0000  0.0000  0.0000
 1574SOL     OW11101   0.083   7.012   5.850  0.0000  0.0000  0.0000
 1574SOL    HW111102   0.169   7.054   5.861  0.0000  0.0000  0.0000
 1574SOL    HW211103   0.033   7.074   5.797  0.0000  0.0000  0.0000
 1574SOL     MW11104   0.088   7.026   5.844  0.0000  0.0000  0.0000
 1575SOL     OW11105   4.095   5.794   1.609  0.0000  0.0000  0.0000
 1575SOL    HW111106   4.030   5.863   1.605  0.0000  0.0000  0.0000
 1575SOL    HW211107   4.097   5.757   1.520  0.0000  0.0000  0.0000
 1575SOL     MW11108   4.087   5.798   1.597  0.0000  0.0000  0.0000
 1576SOL     OW11109   4.033   3.594   3.084  0.0000  0.0000  0.0000
 1576SOL    HW111110   4.074   3.676   3.113  0.0000  0.0000  0.0000
 1576SOL    HW211111   3.972   3.621   3.016  0.0000  0.0000  0.0000
 1576SOL     MW11112   4.030   3.609   3.079  0.0000  0.0000  0.0000
 1577SOL     OW11113   1.901   3.002   6.265  0.0000  0.0000  0.0000
 1577SOL    HW111114   1.899   3.011   6.170  0.0000  0.0000  0.0000
 1577SOL    HW211115   1.830   2.941   6.285  0.0000  0.0000  0.0000
 1577SOL     MW11116   1.891   2.995   6.255  0.0000  0.0000  0.0000
 1578SOL     OW11117   0.305   5.759   6.289  0.0000  0.0000  0.0000
 1578SOL    HW111118   0.289   5.781   6.197  0.0000  0.0000  0.0000
 1578SOL    HW211119   0.389   5.801   6.310  0.0000  0.0000  0.0000
 1578SOL     MW11120   0.314   5.768   6.280  0.0000  0.0000  0.0000
 1579SOL     OW11121   0.916   6.636   2.420  0.0000  0.0000  0.0000
 1579SOL    HW111122   0.866   6.599   2.493  0.0000  0.0000  0.0000
 1579SOL    HW211123   0.967   6.563   2.386  0.0000  0.0000  0.0000
 1579SOL     MW11124   0.916   6.622   2.425  0.0000  0.0000  0.0000
 1580SOL     OW11125   3.000   6.446   6.293  0.0000  0.0000  0.0000
 1580SOL    HW111126   3.033   6.384   6.358  0.0000  0.0000  0.0000
 1580SOL    HW211127   3.017   6.532   6.330  0.0000  0.0000  0.0000
 1580SOL     MW11128   3.006   6.449   6.307  0.0000  0.0000  0.0000
 1581SOL     OW11129   0.647   3.119   2.508  0.0000  0.0000  0.0000
 1581SOL    HW111130   0.734   3.113   2.469  0.0000  0.0000  0.0000
 1581SOL    HW211131   0.594   3.162   2.440  0.0000  0.0000  0.0000
 1581SOL     MW11132   0.651   3.124   2.494  0.0000  0.0000  0.0000
 1582SOL     OW11133   1.231   6.748   5.022  0.0000  0.0000  0.0000
 1582SOL    HW111134   1.195   6.708   4.943  0.0000  0.0000  0.0000
 1582SOL    HW211135   1.201   6.691   5.093  0.0000  0.0000  0.0000
 1582SOL     MW11136   1.222   6.735   5.021  0.0000  0.0000  0.0000
 1583SOL     OW11137   0.271   6.923   4.281  0.0000  0.0000  0.0000
 1583SOL    HW111138   0.298   6.933   4.372  0.0000  0.0000  0.0000
 1583SOL    HW211139   0.196   6.981   4.270  0.0000  0.0000  0.0000
 1583SOL     MW11140   0.265   6.932   4.291  0.0000  0.0000  0.0000
 1584SOL     OW11141   3.672   6.915   2.303  0.0000  0.0000  0.0000
 1584SOL    HW111142   3.762   6.888   2.284  0.0000  0.0000  0.0000
 1584SOL    HW211143   3.680   7.003   2.340  0.0000  0.0000  0.0000
 1584SOL     MW11144   3.685   6.923   2.305  0.0000  0.0000  0.0000
 1585SOL     OW11145   2.882   2.691   6.079  0.0000  0.0000  0.0000
 1585SOL    HW111146   2.844   2.769   6.038  0.0000  0.0000  0.0000
 1585SOL    HW211147   2.814   2.661   6.141  0.0000  0.0000  0.0000
 1585SOL     MW11148   2.868   2.698   6.082  0.0000  0.0000  0.0000
 1586SOL     OW11149   2.357   6.676   1.783  0.0000  0.0000  0.0000
 1586SOL    HW111150   2.418   6.605   1.763  0.0000  0.0000  0.0000
 1586SOL    HW211151   2.354   6.728   1.703  0.0000  0.0000  0.0000
 1586SOL     MW11152   2.365   6.674   1.770  0.0000  0.0000  0.0000
 1587SOL     OW11153   0.225   3.747   6.348  0.0000  0.0000  0.0000
 1587SOL    HW111154   0.220   3.651   6.350  0.0000  0.0000  0.0000
 1587SOL    HW211155   0.171   3.773   6.274  0.0000  0.0000  0.0000
 1587SOL     MW11156   0.217   3.738   6.339  0.0000  0.0000  0.0000
 1588SOL     OW11157   0.578   6.011   5.969  0.0000  0.0000  0.0000
 1588SOL    HW111158   0.670   6.037   5.964  0.0000  0.0000  0.0000
 1588SOL    HW211159   0.537   6.078   6.025  0.0000  0.0000  0.0000
 1588SOL     MW11160   0.584   6.023   5.976  0.0000  0.0000  0.0000
 1589SOL     OW11161   3.583   3.107   2.193  0.0000  0.0000  0.0000
 1589SOL    HW111162   3.544   3.020   2.188  0.0000  0.0000  0.0000
 1589SOL    HW211163   3.511   3.166   2.170  0.0000  0.0000  0.0000
 1589SOL     MW11164   3.568   3.104   2.189  0.0000  0.0000  0.0000
 1590SOL     OW11165   2.188   6.025   2.410  0.0000  0.0000  0.0000
 1590SOL    HW111166   2.170   6.090   2.478  0.0000  0.0000  0.0000
 1590SOL    HW211167   2.147   5.945   2.443  0.0000  0.0000  0.0000
 1590SOL     MW11168   2.180   6.023   2.424  0.0000  0.0000  0.0000
 1591SOL     OW11169   1.586   3.811   2.548  0.0000  0.0000  0.0000
 1591SOL    HW111170   1.545   3.898   2.553  0.0000  0.0000  0.0000
 1591SOL    HW211171   1.564   3.779   2.461  0.0000  0.0000  0.0000
 1591SOL     MW11172   1.578   3.818   2.537  0.0000  0.0000  0.0000
 1592SOL     OW11173   0.106   3.139   2.439  0.0000  0.0000  0.0000
 1592SOL    HW111174   0.115   3.107   2.349  0.0000  0.0000  0.0000
 1592SOL    HW211175   0.166   3.085   2.490  0.0000  0.0000  0.0000
 1592SOL     MW11176   0.115   3.128   2.434  0.0000  0.0000  0.0000
 1593SOL     OW11177   2.331   6.609   4.855  0.0000  0.0000  0.0000
 1593SOL    HW111178   2.284   6.591   4.936  0.0000  0.0000  0.0000
 1593SOL    HW211179   2.353   6.702   4.859  0.0000  0.0000  0.0000
 1593SOL     MW11180   2.328   6.619   4.866  0.0000  0.0000  0.0000
 1594SOL     OW11181   1.164   3.406   5.458  0.0000  0.0000  0.0000
 1594SOL    HW111182   1.249   3.423   5.417  0.0000  0.0000  0.0000
 1594SOL    HW211183   1.185   3.360   5.539  0.0000  0.0000  0.0000
 1594SOL     MW11184   1.178   3.402   5.463  0.0000  0.0000  0.0000
 1595SOL     OW11185   0.680   6.654   5.939  0.0000  0.0000  0.0000
 1595SOL    HW111186   0.695   6.562   5.960  0.0000  0.0000  0.0000
 1595SOL    HW211187   0.735   6.703   6.001  0.0000  0.0000  0.0000
 1595SOL     MW11188   0.689   6.648   5.950  0.0000  0.0000  0.0000
 1596SOL     OW11189   1.975   4.485   1.638  0.0000  0.0000  0.0000
 1596SOL    HW111190   1.924   4.565   1.652  0.0000  0.0000  0.0000
 1596SOL    HW211191   2.001   4.489   1.546  0.0000  0.0000  0.0000
 1596SOL     MW11192   1.972   4.496   1.628  0.0000  0.0000  0.0000
 1597SOL     OW11193   4.434   5.600   2.376  0.0000  0.0000  0.0000
 1597SOL    HW111194   4.468   5.687   2.400  0.0000  0.0000  0.0000
 1597SOL    HW211195   4.368   5.618   2.309  0.0000  0.0000  0.0000
 1597SOL     MW11196   4.430   5.614   2.370  0.0000  0.0000  0.0000
 1598SOL     OW11197   1.565   6.089   6.173  0.0000  0.0000  0.0000
 1598SOL    HW111198   1.609   6.004   6.182  0.0000  0.0000  0.0000
 1598SOL    HW211199   1.560   6.104   6.079  0.0000  0.0000  0.0000
 1598SOL     MW11200   1.571   6.080   6.162  0.0000  0.0000  0.0000
 1599SOL     OW11201   2.167   2.884   6.270  0.0000  0.0000  0.0000
 1599SOL    HW111202   2.232   2.954   6.276  0.0000  0.0000  0.0000
 1599SOL    HW211203   2.082   2.929   6.278  0.0000  0.0000  0.0000
 1599SOL     MW11204   2.164   2.899   6.272  0.0000  0.0000  0.0000
 1600SOL     OW11205   0.337   4.300   5.188  0.0000  0.0000  0.0000
 1600SOL    HW111206   0.429   4.308   5.214  0.0000  0.0000  0.0000
 1600SOL    HW211207   0.338   4.234   5.119  0.0000  0.0000  0.0000
 1600SOL     MW11208   0.349   4.292   5.182  0.0000  0.0000  0.0000
 1601SOL     OW11209   2.432   6.988   6.041  0.0000  0.0000  0.0000
 1601SOL    HW111210   2.364   6.922   6.024  0.0000  0.0000  0.0000
 1601SOL    HW211211   2.462   7.014   5.954  0.0000  0.0000  0.0000
 1601SOL     MW11212   2.427   6.983   6.027  0.0000  0.0000  0.0000
 1602SOL     OW11213   4.282   5.665   5.784  0.0000  0.0000  0.0000
 1602SOL    HW111214   4.222   5.714   5.840  0.0000  0.0000  0.0000
 1602SOL    HW211215   4.231   5.591   5.752  0.0000  0.0000  0.0000
 1602SOL     MW11216   4.268   5.661   5.787  0.0000  0.0000  0.0000
 1603SOL     OW11217   4.492   3.862   6.370  0.0000  0.0000  0.0000
 1603SOL    HW111218   4.554   3.807   6.418  0.0000  0.0000  0.0000
 1603SOL    HW211219   4.431   3.892   6.436  0.0000  0.0000  0.0000
 1603SOL     MW11220   4.492   3.858   6.385  0.0000  0.0000  0.0000
 1604SOL     OW11221   4.337   5.916   4.944  0.0000  0.0000  0.0000
 1604SOL    HW111222   4.361   5.975   4.872  0.0000  0.0000  0.0000
 1604SOL    HW211223   4.354   5.828   4.909  0.0000  0.0000  0.0000
 1604SOL     MW11224   4.343   5.912   4.930  0.0000  0.0000  0.0000
 1605SOL     OW11225   3.378   3.072   2.404  0.0000  0.0000  0.0000
 1605SOL    HW111226   3.442   3.107   2.343  0.0000  0.0000  0.0000
 1605SOL    HW211227   3.417   2.990   2.435  0.0000  0.0000  0.0000
 1605SOL     MW11228   3.392   3.066   2.400  0.0000  0.0000  0.0000
 1606SOL     OW11229   4.258   2.613   5.274  0.0000  0.0000  0.0000
 1606SOL    HW111230   4.213   2.546   5.221  0.0000  0.0000  0.0000
 1606SOL    HW211231   4.191   2.680   5.290  0.0000  0.0000  0.0000
 1606SOL     MW11232   4.243   2.613   5.269  0.0000  0.0000  0.0000
 1607SOL     OW11233   0.363   2.816   1.707  0.0000  0.0000  0.0000
 1607SOL    HW111234   0.337   2.892   1.760  0.0000  0.0000  0.0000
 1607SOL    HW211235   0.345   2.740   1.764  0.0000  0.0000  0.0000
 1607SOL     MW11236   0.357   2.816   1.722  0.0000  0.0000  0.0000
 1608SOL     OW11237   3.633   4.356   6.475  0.0000  0.0000  0.0000
 1608SOL    HW111238   3.642   4.434   6.419  0.0000  0.0000  0.0000
 1608SOL    HW211239   3.555   4.312   6.441  0.0000  0.0000  0.0000
 1608SOL     MW11240   3.624   4.361   6.463  0.0000  0.0000  0.0000
 1609SOL     OW11241   4.405   4.407   1.752  0.0000  0.0000  0.0000
 1609SOL    HW111242   4.452   4.448   1.824  0.0000  0.0000  0.0000
 1609SOL    HW211243   4.415   4.468   1.679  0.0000  0.0000  0.0000
 1609SOL     MW11244   4.413   4.420   1.752  0.0000  0.0000  0.0000
 1610SOL     OW11245   1.338   4.562   1.728  0.0000  0.0000  0.0000
 1610SOL    HW111246   1.385   4.479   1.728  0.0000  0.0000  0.0000
 1610SOL    HW211247   1.252   4.541   1.691  0.0000  0.0000  0.0000
 1610SOL     MW11248   1.333   4.549   1.723  0.0000  0.0000  0.0000
 1611SOL     OW11249   2.014   6.240   3.920  0.0000  0.0000  0.0000
 1611SOL    HW111250   2.086   6.274   3.974  0.0000  0.0000  0.0000
 1611SOL    HW211251   1.967   6.318   3.891  0.0000  0.0000  0.0000
 1611SOL     MW11252   2.017   6.255   3.924  0.0000  0.0000  0.0000
 1612SOL     OW11253   4.295   2.830   5.527  0.0000  0.0000  0.0000
 1612SOL    HW111254   4.333   2.887   5.594  0.0000  0.0000  0.0000
 1612SOL    HW211255   4.259   2.756   5.577  0.0000  0.0000  0.0000
 1612SOL     MW11256   4.296   2.827   5.543  0.0000  0.0000  0.0000
 1613SOL     OW11257   0.993   3.866   6.403  0.0000  0.0000  0.0000
 1613SOL    HW111258   0.999   3.954   6.439  0.0000  0.0000  0.0000
 1613SOL    HW211259   0.919   3.870   6.342  0.0000  0.0000  0.0000
 1613SOL     MW11260   0.984   3.878   6.400  0.0000  0.0000  0.0000
 1614SOL     OW11261   3.918   3.495   3.324  0.0000  0.0000  0.0000
 1614SOL    HW111262   3.970   3.539   3.257  0.0000  0.0000  0.0000
 1614SOL    HW211263   3.948   3.532   3.407  0.0000  0.0000  0.0000
 1614SOL     MW11264   3.928   3.506   3.326  0.0000  0.0000  0.0000
 1615SOL     OW11265   2.099   6.745   6.357  0.0000  0.0000  0.0000
 1615SOL    HW111266   2.194   6.752   6.371  0.0000  0.0000  0.0000
 1615SOL    HW211267   2.067   6.835   6.366  0.0000  0.0000  0.0000
 1615SOL     MW11268   2.107   6.758   6.360  0.0000  0.0000  0.0000
 1616SOL     OW11269   0.787   3.245   1.994  0.0000  0.0000  0.0000
 1616SOL    HW111270   0.845   3.182   2.039  0.0000  0.0000  0.0000
 1616SOL    HW211271   0.729   3.276   2.063  0.0000  0.0000  0.0000
 1616SOL     MW11272   0.787   3.241   2.009  0.0000  0.0000  0.0000
 1617SOL     OW11273   0.810   5.907   4.603  0.0000  0.0000  0.0000
 1617SOL    HW111274   0.793   5.962   4.526  0.0000  0.0000  0.0000
 1617SOL    HW211275   0.785   5.962   4.677  0.0000  0.0000  0.0000
 1617SOL     MW11276   0.805   5.921   4.602  0.0000  0.0000  0.0000
 1618SOL     OW11277   2.874   6.218   5.488  0.0000  0.0000  0.0000
 1618SOL    HW111278   2.809   6.266   5.539  0.0000  0.0000  0.0000
 1618SOL    HW211279   2.955   6.227   5.538  0.0000  0.0000  0.0000
 1618SOL     MW11280   2.876   6.226   5.501  0.0000  0.0000  0.0000
 1619SOL     OW11281   3.520   6.842   6.487  0.0000  0.0000  0.0000
 1619SOL    HW111282   3.580   6.768   6.483  0.0000  0.0000  0.0000
 1619SOL    HW211283   3.577   6.919   6.487  0.0000  0.0000  0.0000
 1619SOL     MW11284   3.536   6.843   6.487  0.0000  0.0000  0.0000
 1620SOL     OW11285   4.381   5.728   6.104  0.0000  0.0000  0.0000
 1620SOL    HW111286   4.379   5.635   6.084  0.0000  0.0000  0.0000
 1620SOL    HW211287   4.433   5.735   6.184  0.0000  0.0000  0.0000
 1620SOL     MW11288   4.387   5.717   6.112  0.0000  0.0000  0.0000
 1621SOL     OW11289   1.489   3.168   2.652  0.0000  0.0000  0.0000
 1621SOL    HW111290   1.405   3.157   2.608  0.0000  0.0000  0.0000
 1621SOL    HW211291   1.468   3.162   2.746  0.0000  0.0000  0.0000
 1621SOL     MW11292   1.475   3.166   2.659  0.0000  0.0000  0.0000
 1622SOL     OW11293   0.538   5.722   5.935  0.0000  0.0000  0.0000
 1622SOL    HW111294   0.474   5.792   5.949  0.0000  0.0000  0.0000
 1622SOL    HW211295   0.546   5.679   6.020  0.0000  0.0000  0.0000
 1622SOL     MW11296   0.531   5.725   5.948  0.0000  0.0000  0.0000
 1623SOL     OW11297   2.485   5.889   6.444  0.0000  0.0000  0.0000
 1623SOL    HW111298   2.529   5.836   6.510  0.0000  0.0000  0.0000
 1623SOL    HW211299   2.469   5.973   6.488  0.0000  0.0000  0.0000
 1623SOL     MW11300   2.489   5.893   6.458  0.0000  0.0000  0.0000
 1624SOL     OW11301   0.690   5.926   1.627  0.0000  0.0000  0.0000
 1624SOL    HW111302   0.741   5.893   1.701  0.0000  0.0000  0.0000
 1624SOL    HW211303   0.644   6.003   1.661  0.0000  0.0000  0.0000
 1624SOL     MW11304   0.690   5.931   1.641  0.0000  0.0000  0.0000
 1625SOL     OW11305   2.265   3.046   5.929  0.0000  0.0000  0.0000
 1625SOL    HW111306   2.306   2.964   5.957  0.0000  0.0000  0.0000
 1625SOL    HW211307   2.289   3.055   5.837  0.0000  0.0000  0.0000
 1625SOL     MW11308   2.274   3.037   5.921  0.0000  0.0000  0.0000
 1626SOL     OW11309   3.425   2.911   1.997  0.0000  0.0000  0.0000
 1626SOL    HW111310   3.465   2.845   1.940  0.0000  0.0000  0.0000
 1626SOL    HW211311   3.389   2.976   1.937  0.0000  0.0000  0.0000
 1626SOL     MW11312   3.425   2.911   1.982  0.0000  0.0000  0.0000
 1627SOL     OW11313   4.421   6.678   5.919  0.0000  0.0000  0.0000
 1627SOL    HW111314   4.359   6.749   5.900  0.0000  0.0000  0.0000
 1627SOL    HW211315   4.505   6.711   5.888  0.0000  0.0000  0.0000
 1627SOL     MW11316   4.424   6.692   5.913  0.0000  0.0000  0.0000
 1628SOL     OW11317   0.565   4.346   5.855  0.0000  0.0000  0.0000
 1628SOL    HW111318   0.556   4.441   5.848  0.0000  0.0000  0.0000
 1628SOL    HW211319   0.566   4.316   5.764  0.0000  0.0000  0.0000
 1628SOL     MW11320   0.564   4.355   5.842  0.0000  0.0000  0.0000
 1629SOL     OW11321   3.617   6.964   1.655  0.0000  0.0000  0.0000
 1629SOL    HW111322   3.686   6.927   1.600  0.0000  0.0000  0.0000
 1629SOL    HW211323   3.538   6.957   1.601  0.0000  0.0000  0.0000
 1629SOL     MW11324   3.616   6.959   1.640  0.0000  0.0000  0.0000
 1630SOL     OW11325   0.840   6.027   6.209  0.0000  0.0000  0.0000
 1630SOL    HW111326   0.804   6.099   6.261  0.0000  0.0000  0.0000
 1630SOL    HW211327   0.799   5.949   6.245  0.0000  0.0000  0.0000
 1630SOL     MW11328   0.829   6.026   6.221  0.0000  0.0000  0.0000
 1631SOL     OW11329   2.895   6.059   5.838  0.0000  0.0000  0.0000
 1631SOL    HW111330   2.931   5.982   5.794  0.0000  0.0000  0.0000
 1631SOL    HW211331   2.949   6.071   5.916  0.0000  0.0000  0.0000
 1631SOL     MW11332   2.907   6.050   5.842  0.0000  0.0000  0.0000
 1632SOL     OW11333   4.329   7.059   5.763  0.0000  0.0000  0.0000
 1632SOL    HW111334   4.289   7.126   5.708  0.0000  0.0000  0.0000
 1632SOL    HW211335   4.369   6.998   5.702  0.0000  0.0000  0.0000
 1632SOL     MW11336   4.329   7.060   5.748  0.0000  0.0000  0.0000
 1633SOL     OW11337   4.209   3.161   3.119  0.0000  0.0000  0.0000
 1633SOL    HW111338   4.152   3.228   3.082  0.0000  0.0000  0.0000
 1633SOL    HW211339   4.161   3.127   3.194  0.0000  0.0000  0.0000
 1633SOL     MW11340   4.195   3.165   3.124  0.0000  0.0000  0.0000
 1634SOL     OW11341   1.129   2.755   6.461  0.0000  0.0000  0.0000
 1634SOL    HW111342   1.085   2.808   6.396  0.0000  0.0000  0.0000
 1634SOL    HW211343   1.137   2.669   6.421  0.0000  0.0000  0.0000
 1634SOL     MW11344   1.124   2.751   6.447  0.0000  0.0000  0.0000
 1635SOL     OW11345   0.390   4.740   6.199  0.0000  0.0000  0.0000
 1635SOL    HW111346   0.428   4.742   6.286  0.0000  0.0000  0.0000
 1635SOL    HW211347   0.307   4.694   6.209  0.0000  0.0000  0.0000
 1635SOL     MW11348   0.384   4.734   6.212  0.0000  0.0000  0.0000
 1636SOL     OW11349   4.484   3.117   2.411  0.0000  0.0000  0.0000
 1636SOL    HW111350   4.434   3.111   2.492  0.0000  0.0000  0.0000
 1636SOL    HW211351   4.572   3.144   2.439  0.0000  0.0000  0.0000
 1636SOL     MW11352   4.489   3.120   2.425  0.0000  0.0000  0.0000
 1637SOL     OW11353   3.101   6.708   6.383  0.0000  0.0000  0.0000
 1637SOL    HW111354   3.074   6.798   6.400  0.0000  0.0000  0.0000
 1637SOL    HW211355   3.189   6.717   6.344  0.0000  0.0000  0.0000
 1637SOL     MW11356   3.109   6.721   6.380  0.0000  0.0000  0.0000
 1638SOL     OW11357   2.760   3.001   6.247  0.0000  0.0000  0.0000
 1638SOL    HW111358   2.852   2.986   6.266  0.0000  0.0000  0.0000
 1638SOL    HW211359   2.734   3.072   6.306  0.0000  0.0000  0.0000
 1638SOL     MW11360   2.769   3.008   6.257  0.0000  0.0000  0.0000
 1639SOL     OW11361   3.949   7.018   6.507  0.0000  0.0000  0.0000
 1639SOL    HW111362   3.953   7.000   6.413  0.0000  0.0000  0.0000
 1639SOL    HW211363   3.968   7.112   6.514  0.0000  0.0000  0.0000
 1639SOL     MW11364   3.952   7.028   6.495  0.0000  0.0000  0.0000
 1640SOL     OW11365   2.458   4.953   6.444  0.0000  0.0000  0.0000
 1640SOL    HW111366   2.394   4.885   6.462  0.0000  0.0000  0.0000
 1640SOL    HW211367   2.519   4.913   6.382  0.0000  0.0000  0.0000
 1640SOL     MW11368   2.458   4.939   6.438  0.0000  0.0000  0.0000
 1641SOL     OW11369   1.777   4.281   1.777  0.0000  0.0000  0.0000
 1641SOL    HW111370   1.802   4.227   1.852  0.0000  0.0000  0.0000
 1641SOL    HW211371   1.858   4.325   1.751  0.0000  0.0000  0.0000
 1641SOL     MW11372   1.791   4.280   1.783  0.0000  0.0000  0.0000
 1642SOL     OW11373   4.643   4.264   2.811  0.0000  0.0000  0.0000
 1642SOL    HW111374   4.707   4.329   2.841  0.0000  0.0000  0.0000
 1642SOL    HW211375   4.666   4.184   2.858  0.0000  0.0000  0.0000
 1642SOL     MW11376   4.655   4.262   2.821  0.0000  0.0000  0.0000
 1643SOL     OW11377   0.395   4.353   6.296  0.0000  0.0000  0.0000
 1643SOL    HW111378   0.487   4.373   6.282  0.0000  0.0000  0.0000
 1643SOL    HW211379   0.351   4.385   6.218  0.0000  0.0000  0.0000
 1643SOL     MW11380   0.401   4.360   6.284  0.0000  0.0000  0.0000
 1644SOL     OW11381   4.334   4.844   1.572  0.0000  0.0000  0.0000
 1644SOL    HW111382   4.281   4.921   1.593  0.0000  0.0000  0.0000
 1644SOL    HW211383   4.411   4.852   1.628  0.0000  0.0000  0.0000
 1644SOL     MW11384   4.337   4.855   1.582  0.0000  0.0000  0.0000
 1645SOL     OW11385   0.207   3.762   1.932  0.0000  0.0000  0.0000
 1645SOL    HW111386   0.169   3.773   1.845  0.0000  0.0000  0.0000
 1645SOL    HW211387   0.220   3.668   1.941  0.0000  0.0000  0.0000
 1645SOL     MW11388   0.203   3.751   1.922  0.0000  0.0000  0.0000
 1646SOL     OW11389   0.838   6.531   1.847  0.0000  0.0000  0.0000
 1646SOL    HW111390   0.819   6.540   1.940  0.0000  0.0000  0.0000
 1646SOL    HW211391   0.851   6.438   1.833  0.0000  0.0000  0.0000
 1646SOL     MW11392   0.837   6.520   1.857  0.0000  0.0000  0.0000
 1647SOL     OW11393   3.347   3.217   2.747  0.0000  0.0000  0.0000
 1647SOL    HW111394   3.311   3.297   2.785  0.0000  0.0000  0.0000
 1647SOL    HW211395   3.286   3.194   2.677  0.0000  0.0000  0.0000
 1647SOL     MW11396   3.334   3.224   2.743  0.0000  0.0000  0.0000
 1648SOL     OW11397   4.642   5.950   4.716  0.0000  0.0000  0.0000
 1648SOL    HW111398   4.646   5.992   4.802  0.0000  0.0000  0.0000
 1648SOL    HW211399   4.675   6.016   4.655  0.0000  0.0000  0.0000
 1648SOL     MW11400   4.647   5.964   4.719  0.0000  0.0000  0.0000
 1649SOL     OW11401   0.963   4.270   1.561  0.0000  0.0000  0.0000
 1649SOL    HW111402   0.912   4.237   1.634  0.0000  0.0000  0.0000
 1649SOL    HW211403   1.045   4.220   1.564  0.0000  0.0000  0.0000
 1649SOL     MW11404   0.967   4.259   1.571  0.0000  0.0000  0.0000
 1650SOL     OW11405   2.016   5.377   5.789  0.0000  0.0000  0.0000
 1650SOL    HW111406   2.006   5.386   5.695  0.0000  0.0000  0.0000
 1650SOL    HW211407   2.094   5.323   5.800  0.0000  0.0000  0.0000
 1650SOL     MW11408   2.025   5.371   5.778  0.0000  0.0000  0.0000
 1651SOL     OW11409   1.401   2.715   6.461  0.0000  0.0000  0.0000
 1651SOL    HW111410   1.421   2.746   6.373  0.0000  0.0000  0.0000
 1651SOL    HW211411   1.317   2.757   6.483  0.0000  0.0000  0.0000
 1651SOL     MW11412   1.393   2.725   6.452  0.0000  0.0000  0.0000
 1652SOL     OW11413   0.808   4.101   4.247  0.0000  0.0000  0.0000
 1652SOL    HW111414   0.737   4.064   4.298  0.0000  0.0000  0.0000
 1652SOL    HW211415   0.772   4.110   4.159  0.0000  0.0000  0.0000
 1652SOL     MW11416   0.794   4.098   4.242  0.0000  0.0000  0.0000
 1653SOL     OW11417   3.841   2.935   2.373  0.0000  0.0000  0.0000
 1653SOL    HW111418   3.801   2.881   2.441  0.0000  0.0000  0.0000
 1653SOL    HW211419   3.788   3.014   2.371  0.0000  0.0000  0.0000
 1653SOL     MW11420   3.829   2.938   2.382  0.0000  0.0000  0.0000
 1654SOL     OW11421   3.787   3.185   1.774  0.0000  0.0000  0.0000
 1654SOL    HW111422   3.753   3.102   1.740  0.0000  0.0000  0.0000
 1654SOL    HW211423   3.864   3.203   1.721  0.0000  0.0000  0.0000
 1654SOL     MW11424   3.793   3.176   1.763  0.0000  0.0000  0.0000
 1655SOL     OW11425   3.162   2.841   1.696  0.0000  0.0000  0.0000
 1655SOL    HW111426   3.103   2.769   1.721  0.0000  0.0000  0.0000
 1655SOL    HW211427   3.241   2.826   1.746  0.0000  0.0000  0.0000
 1655SOL     MW11428   3.164   2.830   1.705  0.0000  0.0000  0.0000
 1656SOL     OW11429   2.731   5.525   6.410  0.0000  0.0000  0.0000
 1656SOL    HW111430   2.782   5.468   6.467  0.0000  0.0000  0.0000
 1656SOL    HW211431   2.700   5.467   6.340  0.0000  0.0000  0.0000
 1656SOL     MW11432   2.734   5.510   6.408  0.0000  0.0000  0.0000
 1657SOL     OW11433   3.677   4.586   6.316  0.0000  0.0000  0.0000
 1657SOL    HW111434   3.625   4.664   6.334  0.0000  0.0000  0.0000
 1657SOL    HW211435   3.735   4.611   6.244  0.0000  0.0000  0.0000
 1657SOL     MW11436   3.678   4.599   6.309  0.0000  0.0000  0.0000
 1658SOL     OW11437   2.583   4.842   6.180  0.0000  0.0000  0.0000
 1658SOL    HW111438   2.666   4.794   6.178  0.0000  0.0000  0.0000
 1658SOL    HW211439   2.559   4.852   6.088  0.0000  0.0000  0.0000
 1658SOL     MW11440   2.591   4.837   6.167  0.0000  0.0000  0.0000
 1659SOL     OW11441   4.565   5.601   1.578  0.0000  0.0000  0.0000
 1659SOL    HW111442   4.619   5.525   1.554  0.0000  0.0000  0.0000
 1659SOL    HW211443   4.628   5.668   1.604  0.0000  0.0000  0.0000
 1659SOL     MW11444   4.581   5.600   1.578  0.0000  0.0000  0.0000
 1660SOL     OW11445   0.845   7.029   2.158  0.0000  0.0000  0.0000
 1660SOL    HW111446   0.804   6.958   2.109  0.0000  0.0000  0.0000
 1660SOL    HW211447   0.903   7.071   2.094  0.0000  0.0000  0.0000
 1660SOL     MW11448   0.847   7.025   2.143  0.0000  0.0000  0.0000
 1661SOL     OW11449   2.749   5.113   5.993  0.0000  0.0000  0.0000
 1661SOL    HW111450   2.701   5.194   5.975  0.0000  0.0000  0.0000
 1661SOL    HW211451   2.688   5.043   5.970  0.0000  0.0000  0.0000
 1661SOL     MW11452   2.735   5.115   5.987  0.0000  0.0000  0.0000
 1662SOL     OW11453   4.077   3.333   2.352  0.0000  0.0000  0.0000
 1662SOL    HW111454   4.100   3.426   2.353  0.0000  0.0000  0.0000
 1662SOL    HW211455   4.021   3.321   2.429  0.0000  0.0000  0.0000
 1662SOL     MW11456   4.073   3.344   2.362  0.0000  0.0000  0.0000
 1663SOL     OW11457   0.522   4.880   2.183  0.0000  0.0000  0.0000
 1663SOL    HW111458   0.504   4.931   2.105  0.0000  0.0000  0.0000
 1663SOL    HW211459   0.442   4.887   2.236  0.0000  0.0000  0.0000
 1663SOL     MW11460   0.509   4.887   2.180  0.0000  0.0000  0.0000
 1664SOL     OW11461   0.200   4.447   6.113  0.0000  0.0000  0.0000
 1664SOL    HW111462   0.176   4.446   6.021  0.0000  0.0000  0.0000
 1664SOL    HW211463   0.132   4.499   6.155  0.0000  0.0000  0.0000
 1664SOL     MW11464   0.188   4.453   6.107  0.0000  0.0000  0.0000
 1665SOL     OW11465   4.270   3.921   1.580  0.0000  0.0000  0.0000
 1665SOL    HW111466   4.210   3.853   1.552  0.0000  0.0000  0.0000
 1665SOL    HW211467   4.214   3.994   1.604  0.0000  0.0000  0.0000
 1665SOL     MW11468   4.255   3.922   1.580  0.0000  0.0000  0.0000
 1666SOL     OW11469   2.868   3.125   2.486  0.0000  0.0000  0.0000
 1666SOL    HW111470   2.846   3.047   2.537  0.0000  0.0000  0.0000
 1666SOL    HW211471   2.956   3.148   2.514  0.0000  0.0000  0.0000
 1666SOL     MW11472   2.877   3.118   2.496  0.0000  0.0000  0.0000
 1667SOL     OW11473   2.192   6.098   1.731  0.0000  0.0000  0.0000
 1667SOL    HW111474   2.180   6.152   1.809  0.0000  0.0000  0.0000
 1667SOL    HW211475   2.108   6.055   1.718  0.0000  0.0000  0.0000
 1667SOL     MW11476   2.180   6.099   1.740  0.0000  0.0000  0.0000
 1668SOL     OW11477   1.938   3.699   1.717  0.0000  0.0000  0.0000
 1668SOL    HW111478   1.983   3.618   1.695  0.0000  0.0000  0.0000
 1668SOL    HW211479   1.954   3.757   1.642  0.0000  0.0000  0.0000
 1668SOL     MW11480   1.946   3.696   1.704  0.0000  0.0000  0.0000
 1669SOL     OW11481   2.304   4.658   1.586  0.0000  0.0000  0.0000
 1669SOL    HW111482   2.270   4.662   1.676  0.0000  0.0000  0.0000
 1669SOL    HW211483   2.227   4.669   1.531  0.0000  0.0000  0.0000
 1669SOL     MW11484   2.289   4.660   1.591  0.0000  0.0000  0.0000
 1670SOL     OW11485   3.990   3.338   6.049  0.0000  0.0000  0.0000
 1670SOL    HW111486   3.933   3.411   6.021  0.0000  0.0000  0.0000
 1670SOL    HW211487   3.930   3.271   6.079  0.0000  0.0000  0.0000
 1670SOL     MW11488   3.975   3.339   6.049  0.0000  0.0000  0.0000
 1671SOL     OW11489   3.613   2.954   1.736  0.0000  0.0000  0.0000
 1671SOL    HW111490   3.681   2.902   1.777  0.0000  0.0000  0.0000
 1671SOL    HW211491   3.598   2.912   1.652  0.0000  0.0000  0.0000
 1671SOL     MW11492   3.620   2.942   1.731  0.0000  0.0000  0.0000
 1672SOL     OW11493   2.657   5.366   5.914  0.0000  0.0000  0.0000
 1672SOL    HW111494   2.728   5.419   5.878  0.0000  0.0000  0.0000
 1672SOL    HW211495   2.577   5.415   5.892  0.0000  0.0000  0.0000
 1672SOL     MW11496   2.655   5.380   5.907  0.0000  0.0000  0.0000
 1673SOL     OW11497   2.721   6.977   5.590  0.0000  0.0000  0.0000
 1673SOL    HW111498   2.748   6.998   5.501  0.0000  0.0000  0.0000
 1673SOL    HW211499   2.704   6.882   5.588  0.0000  0.0000  0.0000
 1673SOL     MW11500   2.722   6.967   5.578  0.0000  0.0000  0.0000
 1674SOL     OW11501   3.085   5.733   6.328  0.0000  0.0000  0.0000
 1674SOL    HW111502   3.008   5.696   6.283  0.0000  0.0000  0.0000
 1674SOL    HW211503   3.134   5.778   6.259  0.0000  0.0000  0.0000
 1674SOL     MW11504   3.081   5.734   6.313  0.0000  0.0000  0.0000
 1675SOL     OW11505   1.208   4.153   1.658  0.0000  0.0000  0.0000
 1675SOL    HW111506   1.164   4.068   1.667  0.0000  0.0000  0.0000
 1675SOL    HW211507   1.203   4.191   1.746  0.0000  0.0000  0.0000
 1675SOL     MW11508   1.201   4.147   1.671  0.0000  0.0000  0.0000
 1676SOL     OW11509   1.025   4.830   6.061  0.0000  0.0000  0.0000
 1676SOL    HW111510   1.014   4.925   6.060  0.0000  0.0000  0.0000
 1676SOL    HW211511   0.943   4.797   6.098  0.0000  0.0000  0.0000
 1676SOL     MW11512   1.013   4.839   6.066  0.0000  0.0000  0.0000
 1677SOL     OW11513   3.955   6.960   6.234  0.0000  0.0000  0.0000
 1677SOL    HW111514   4.029   6.920   6.188  0.0000  0.0000  0.0000
 1677SOL    HW211515   3.884   6.958   6.171  0.0000  0.0000  0.0000
 1677SOL     MW11516   3.955   6.954   6.220  0.0000  0.0000  0.0000
 1678SOL     OW11517   3.905   2.681   2.266  0.0000  0.0000  0.0000
 1678SOL    HW111518   3.899   2.770   2.302  0.0000  0.0000  0.0000
 1678SOL    HW211519   3.972   2.638   2.319  0.0000  0.0000  0.0000
 1678SOL     MW11520   3.913   2.687   2.278  0.0000  0.0000  0.0000
 1679SOL     OW11521   4.229   6.844   2.310  0.0000  0.0000  0.0000
 1679SOL    HW111522   4.218   6.823   2.403  0.0000  0.0000  0.0000
 1679SOL    HW211523   4.199   6.766   2.265  0.0000  0.0000  0.0000
 1679SOL     MW11524   4.223   6.831   2.317  0.0000  0.0000  0.0000
 1680SOL     OW11525   1.511   3.147   1.965  0.0000  0.0000  0.0000
 1680SOL    HW111526   1.606   3.132   1.959  0.0000  0.0000  0.0000
 1680SOL    HW211527   1.498   3.183   2.053  0.0000  0.0000  0.0000
 1680SOL     MW11528   1.522   3.149   1.976  0.0000  0.0000  0.0000
 1681SOL     OW11529   0.189   7.165   6.428  0.0000  0.0000  0.0000
 1681SOL    HW111530   0.280   7.139   6.419  0.0000  0.0000  0.0000
 1681SOL    HW211531   0.157   7.175   6.339  0.0000  0.0000  0.0000
 1681SOL     MW11532   0.197   7.163   6.415  0.0000  0.0000  0.0000
 1682SOL     OW11533   4.040   3.789   2.480  0.0000  0.0000  0.0000
 1682SOL    HW111534   3.956   3.831   2.493  0.0000  0.0000  0.0000
 1682SOL    HW211535   4.102   3.845   2.527  0.0000  0.0000  0.0000
 1682SOL     MW11536   4.037   3.802   2.488  0.0000  0.0000  0.0000
 1683SOL     OW11537   4.030   4.497   5.458  0.0000  0.0000  0.0000
 1683SOL    HW111538   4.018   4.407   5.489  0.0000  0.0000  0.0000
 1683SOL    HW211539   4.114   4.495   5.411  0.0000  0.0000  0.0000
 1683SOL     MW11540   4.040   4.485   5.456  0.0000  0.0000  0.0000
 1684SOL     OW11541   2.855   5.102   2.026  0.0000  0.0000  0.0000
 1684SOL    HW111542   2.852   5.007   2.017  0.0000  0.0000  0.0000
 1684SOL    HW211543   2.785   5.135   1.970  0.0000  0.0000  0.0000
 1684SOL     MW11544   2.846   5.094   2.018  0.0000  0.0000  0.0000
 1685SOL     OW11545   3.436   6.982   6.171  0.0000  0.0000  0.0000
 1685SOL    HW111546   3.355   7.032   6.159  0.0000  0.0000  0.0000
 1685SOL    HW211547   3.474   6.976   6.083  0.0000  0.0000  0.0000
 1685SOL     MW11548   3.430   6.988   6.158  0.0000  0.0000  0.0000
 1686SOL     OW11549   4.298   2.793   2.375  0.0000  0.0000  0.0000
 1686SOL    HW111550   4.240   2.849   2.324  0.0000  0.0000  0.0000
 1686SOL    HW211551   4.384   2.804   2.334  0.0000  0.0000  0.0000
 1686SOL     MW11552   4.302   2.802   2.363  0.0000  0.0000  0.0000
 1687SOL     OW11553   2.562   6.492   1.710  0.0000  0.0000  0.0000
 1687SOL    HW111554   2.538   6.407   1.674  0.0000  0.0000  0.0000
 1687SOL    HW211555   2.646   6.513   1.669  0.0000  0.0000  0.0000
 1687SOL     MW11556   2.570   6.484   1.700  0.0000  0.0000  0.0000
 1688SOL     OW11557   0.660   5.647   2.374  0.0000  0.0000  0.0000
 1688SOL    HW111558   0.601   5.698   2.430  0.0000  0.0000  0.0000
 1688SOL    HW211559   0.747   5.684   2.390  0.0000  0.0000  0.0000
 1688SOL     MW11560   0.664   5.659   2.383  0.0000  0.0000  0.0000
 1689SOL     OW11561   3.348   6.747   6.284  0.0000  0.0000  0.0000
 1689SOL    HW111562   3.371   6.833   6.248  0.0000  0.0000  0.0000
 1689SOL    HW211563   3.388   6.746   6.371  0.0000  0.0000  0.0000
 1689SOL     MW11564   3.356   6.758   6.290  0.0000  0.0000  0.0000
 1690SOL     OW11565   2.707   6.341   6.225  0.0000  0.0000  0.0000
 1690SOL    HW111566   2.644   6.373   6.161  0.0000  0.0000  0.0000
 1690SOL    HW211567   2.785   6.394   6.211  0.0000  0.0000  0.0000
 1690SOL     MW11568   2.709   6.352   6.215  0.0000  0.0000  0.0000
 1691SOL     OW11569   3.808   5.054   6.381  0.0000  0.0000  0.0000
 1691SOL    HW111570   3.727   5.035   6.429  0.0000  0.0000  0.0000
 1691SOL    HW211571   3.841   4.968   6.356  0.0000  0.0000  0.0000
 1691SOL     MW11572   3.802   5.040   6.384  0.0000  0.0000  0.0000
 1692SOL     OW11573   4.447   5.214   6.381  0.0000  0.0000  0.0000
 1692SOL    HW111574   4.525   5.197   6.433  0.0000  0.0000  0.0000
 1692SOL    HW211575   4.446   5.309   6.369  0.0000  0.0000  0.0000
 1692SOL     MW11576   4.457   5.224   6.386  0.0000  0.0000  0.0000
 1693SOL     OW11577   3.117   3.392   1.776  0.0000  0.0000  0.0000
 1693SOL    HW111578   3.142   3.382   1.684  0.0000  0.0000  0.0000
 1693SOL    HW211579   3.200   3.393   1.823  0.0000  0.0000  0.0000
 1693SOL     MW11580   3.131   3.391   1.770  0.0000  0.0000  0.0000
 1694SOL     OW11581   2.027   5.785   5.801  0.0000  0.0000  0.0000
 1694SOL    HW111582   1.943   5.804   5.758  0.0000  0.0000  0.0000
 1694SOL    HW211583   2.028   5.842   5.878  0.0000  0.0000  0.0000
 1694SOL     MW11584   2.016   5.795   5.806  0.0000  0.0000  0.0000
 1695SOL     OW11585   3.979   7.185   2.845  0.0000  0.0000  0.0000
 1695SOL    HW111586   4.065   7.145   2.831  0.0000  0.0000  0.0000
 1695SOL    HW211587   3.945   7.200   2.757  0.0000  0.0000  0.0000
 1695SOL     MW11588   3.986   7.182   2.831  0.0000  0.0000  0.0000
 1696SOL     OW11589   1.086   4.542   1.639  0.0000  0.0000  0.0000
 1696SOL    HW111590   1.068   4.530   1.733  0.0000  0.0000  0.0000
 1696SOL    HW211591   1.018   4.491   1.595  0.0000  0.0000  0.0000
 1696SOL     MW11592   1.074   4.534   1.646  0.0000  0.0000  0.0000
 1697SOL     OW11593   3.659   5.437   6.351  0.0000  0.0000  0.0000
 1697SOL    HW111594   3.564   5.441   6.343  0.0000  0.0000  0.0000
 1697SOL    HW211595   3.692   5.467   6.266  0.0000  0.0000  0.0000
 1697SOL     MW11596   3.651   5.442   6.339  0.0000  0.0000  0.0000
 1698SOL     OW11597   2.979   5.140   6.130  0.0000  0.0000  0.0000
 1698SOL    HW111598   2.899   5.139   6.079  0.0000  0.0000  0.0000
 1698SOL    HW211599   3.009   5.050   6.131  0.0000  0.0000  0.0000
 1698SOL     MW11600   2.973   5.128   6.124  0.0000  0.0000  0.0000
 1699SOL     OW11601   4.578   2.850   2.332  0.0000  0.0000  0.0000
 1699SOL    HW111602   4.536   2.935   2.341  0.0000  0.0000  0.0000
 1699SOL    HW211603   4.607   2.847   2.241  0.0000  0.0000  0.0000
 1699SOL     MW11604   4.576   2.861   2.321  0.0000  0.0000  0.0000
 1700SOL     OW11605   1.688   3.027   2.519  0.0000  0.0000  0.0000
 1700SOL    HW111606   1.622   3.075   2.570  0.0000  0.0000  0.0000
 1700SOL    HW211607   1.715   3.089   2.451  0.0000  0.0000  0.0000
 1700SOL     MW11608   1.683   3.042   2.517  0.0000  0.0000  0.0000
 1701SOL     OW11609   0.249   5.517   6.196  0.0000  0.0000  0.0000
 1701SOL    HW111610   0.267   5.605   6.229  0.0000  0.0000  0.0000
 1701SOL    HW211611   0.327   5.494   6.146  0.0000  0.0000  0.0000
 1701SOL     MW11612   0.262   5.526   6.194  0.0000  0.0000  0.0000
 1702SOL     OW11613   0.218   6.874   6.530  0.0000  0.0000  0.0000
 1702SOL    HW111614   0.123   6.887   6.539  0.0000  0.0000  0.0000
 1702SOL    HW211615   0.251   6.959   6.500  0.0000  0.0000  0.0000
 1702SOL     MW11616   0.210   6.887   6.527  0.0000  0.0000  0.0000
 1703SOL     OW11617   4.501   5.408   1.834  0.0000  0.0000  0.0000
 1703SOL    HW111618   4.426   5.424   1.776  0.0000  0.0000  0.0000
 1703SOL    HW211619   4.489   5.317   1.863  0.0000  0.0000  0.0000
 1703SOL     MW11620   4.489   5.398   1.830  0.0000  0.0000  0.0000
 1704SOL     OW11621   1.694   4.637   6.111  0.0000  0.0000  0.0000
 1704SOL    HW111622   1.601   4.651   6.128  0.0000  0.0000  0.0000
 1704SOL    HW211623   1.703   4.649   6.017  0.0000  0.0000  0.0000
 1704SOL     MW11624   1.683   4.640   6.101  0.0000  0.0000  0.0000
 1705SOL     OW11625   2.646   3.200   6.416  0.0000  0.0000  0.0000
 1705SOL    HW111626   2.561   3.212   6.458  0.0000  0.0000  0.0000
 1705SOL    HW211627   2.699   3.273   6.448  0.0000  0.0000  0.0000
 1705SOL     MW11628   2.642   3.211   6.426  0.0000  0.0000  0.0000
 1706SOL     OW11629   4.487   5.931   4.486  0.0000  0.0000  0.0000
 1706SOL    HW111630   4.467   5.837   4.480  0.0000  0.0000  0.0000
 1706SOL    HW211631   4.517   5.944   4.576  0.0000  0.0000  0.0000
 1706SOL     MW11632   4.488   5.920   4.497  0.0000  0.0000  0.0000
 1707SOL     OW11633   3.325   2.653   5.491  0.0000  0.0000  0.0000
 1707SOL    HW111634   3.231   2.636   5.503  0.0000  0.0000  0.0000
 1707SOL    HW211635   3.333   2.748   5.495  0.0000  0.0000  0.0000
 1707SOL     MW11636   3.313   2.663   5.493  0.0000  0.0000  0.0000
 1708SOL     OW11637   0.268   5.806   6.014  0.0000  0.0000  0.0000
 1708SOL    HW111638   0.193   5.776   5.962  0.0000  0.0000  0.0000
 1708SOL    HW211639   0.266   5.901   6.005  0.0000  0.0000  0.0000
 1708SOL     MW11640   0.258   5.815   6.006  0.0000  0.0000  0.0000
 1709SOL     OW11641   0.682   2.579   2.281  0.0000  0.0000  0.0000
 1709SOL    HW111642   0.718   2.547   2.364  0.0000  0.0000  0.0000
 1709SOL    HW211643   0.721   2.523   2.214  0.0000  0.0000  0.0000
 1709SOL     MW11644   0.692   2.568   2.283  0.0000  0.0000  0.0000
 1710SOL     OW11645   1.813   6.840   3.864  0.0000  0.0000  0.0000
 1710SOL    HW111646   1.866   6.761   3.879  0.0000  0.0000  0.0000
 1710SOL    HW211647   1.826   6.893   3.942  0.0000  0.0000  0.0000
 1710SOL     MW11648   1.822   6.836   3.876  0.0000  0.0000  0.0000
 1711SOL     OW11649   2.974   2.712   2.547  0.0000  0.0000  0.0000
 1711SOL    HW111650   2.915   2.765   2.600  0.0000  0.0000  0.0000
 1711SOL    HW211651   3.042   2.773   2.518  0.0000  0.0000  0.0000
 1711SOL     MW11652   2.975   2.727   2.550  0.0000  0.0000  0.0000
 1712SOL     OW11653   4.135   6.593   6.250  0.0000  0.0000  0.0000
 1712SOL    HW111654   4.106   6.515   6.202  0.0000  0.0000  0.0000
 1712SOL    HW211655   4.138   6.565   6.341  0.0000  0.0000  0.0000
 1712SOL     MW11656   4.132   6.579   6.256  0.0000  0.0000  0.0000
 1713SOL     OW11657   2.864   2.717   2.281  0.0000  0.0000  0.0000
 1713SOL    HW111658   2.883   2.714   2.374  0.0000  0.0000  0.0000
 1713SOL    HW211659   2.807   2.794   2.271  0.0000  0.0000  0.0000
 1713SOL     MW11660   2.859   2.726   2.292  0.0000  0.0000  0.0000
 1714SOL     OW11661   4.609   5.879   1.904  0.0000  0.0000  0.0000
 1714SOL    HW111662   4.690   5.896   1.952  0.0000  0.0000  0.0000
 1714SOL    HW211663   4.584   5.791   1.930  0.0000  0.0000  0.0000
 1714SOL     MW11664   4.617   5.870   1.914  0.0000  0.0000  0.0000
 1715SOL     OW11665   0.699   7.046   1.621  0.0000  0.0000  0.0000
 1715SOL    HW111666   0.634   7.004   1.678  0.0000  0.0000  0.0000
 1715SOL    HW211667   0.780   6.997   1.638  0.0000  0.0000  0.0000
 1715SOL     MW11668   0.701   7.034   1.631  0.0000  0.0000  0.0000
 1716SOL     OW11669   0.393   4.257   1.678  0.0000  0.0000  0.0000
 1716SOL    HW111670   0.317   4.200   1.662  0.0000  0.0000  0.0000
 1716SOL    HW211671   0.364   4.343   1.648  0.0000  0.0000  0.0000
 1716SOL     MW11672   0.379   4.261   1.672  0.0000  0.0000  0.0000
 1717SOL     OW11673   1.388   6.106   3.988  0.0000  0.0000  0.0000
 1717SOL    HW111674   1.462   6.166   3.979  0.0000  0.0000  0.0000
 1717SOL    HW211675   1.427   6.022   4.009  0.0000  0.0000  0.0000
 1717SOL     MW11676   1.403   6.103   3.989  0.0000  0.0000  0.0000
 1718SOL     OW11677   2.311   5.538   6.067  0.0000  0.0000  0.0000
 1718SOL    HW111678   2.220   5.562   6.051  0.0000  0.0000  0.0000
 1718SOL    HW211679   2.346   5.610   6.120  0.0000  0.0000  0.0000
 1718SOL     MW11680   2.303   5.551   6.072  0.0000  0.0000  0.0000
 1719SOL     OW11681   0.807   3.504   6.003  0.0000  0.0000  0.0000
 1719SOL    HW111682   0.778   3.413   5.994  0.0000  0.0000  0.0000
 1719SOL    HW211683   0.834   3.511   6.095  0.0000  0.0000  0.0000
 1719SOL     MW11684   0.807   3.493   6.014  0.0000  0.0000  0.0000
 1720SOL     OW11685   2.800   6.844   4.189  0.0000  0.0000  0.0000
 1720SOL    HW111686   2.784   6.856   4.283  0.0000  0.0000  0.0000
 1720SOL    HW211687   2.764   6.758   4.169  0.0000  0.0000  0.0000
 1720SOL     MW11688   2.793   6.834   4.199  0.0000  0.0000  0.0000
 1721SOL     OW11689   2.801   2.872   1.781  0.0000  0.0000  0.0000
 1721SOL    HW111690   2.725   2.889   1.835  0.0000  0.0000  0.0000
 1721SOL    HW211691   2.875   2.905   1.832  0.0000  0.0000  0.0000
 1721SOL     MW11692   2.801   2.879   1.794  0.0000  0.0000  0.0000
 1722SOL     OW11693   3.554   7.065   3.318  0.0000  0.0000  0.0000
 1722SOL    HW111694   3.527   7.087   3.229  0.0000  0.0000  0.0000
 1722SOL    HW211695   3.639   7.021   3.308  0.0000  0.0000  0.0000
 1722SOL     MW11696   3.562   7.062   3.305  0.0000  0.0000  0.0000
 1723SOL     OW11697   3.549   5.213   1.740  0.0000  0.0000  0.0000
 1723SOL    HW111698   3.497   5.294   1.745  0.0000  0.0000  0.0000
 1723SOL    HW211699   3.523   5.163   1.817  0.0000  0.0000  0.0000
 1723SOL     MW11700   3.538   5.217   1.751  0.0000  0.0000  0.0000
 1724SOL     OW11701   4.347   6.170   3.203  0.0000  0.0000  0.0000
 1724SOL    HW111702   4.374   6.102   3.141  0.0000  0.0000  0.0000
 1724SOL    HW211703   4.256   6.190   3.178  0.0000  0.0000  0.0000
 1724SOL     MW11704   4.338   6.164   3.191  0.0000  0.0000  0.0000
 1725SOL     OW11705   3.322   2.920   5.487  0.0000  0.0000  0.0000
 1725SOL    HW111706   3.243   2.973   5.486  0.0000  0.0000  0.0000
 1725SOL    HW211707   3.383   2.967   5.429  0.0000  0.0000  0.0000
 1725SOL     MW11708   3.320   2.933   5.479  0.0000  0.0000  0.0000
 1726SOL     OW11709   1.471   2.889   5.821  0.0000  0.0000  0.0000
 1726SOL    HW111710   1.448   2.949   5.749  0.0000  0.0000  0.0000
 1726SOL    HW211711   1.555   2.921   5.853  0.0000  0.0000  0.0000
 1726SOL     MW11712   1.479   2.901   5.815  0.0000  0.0000  0.0000
 1727SOL     OW11713   2.035   4.152   6.093  0.0000  0.0000  0.0000
 1727SOL    HW111714   2.067   4.157   6.183  0.0000  0.0000  0.0000
 1727SOL    HW211715   2.052   4.061   6.067  0.0000  0.0000  0.0000
 1727SOL     MW11716   2.041   4.141   6.102  0.0000  0.0000  0.0000
 1728SOL     OW11717   2.769   6.762   6.334  0.0000  0.0000  0.0000
 1728SOL    HW111718   2.790   6.728   6.422  0.0000  0.0000  0.0000
 1728SOL    HW211719   2.694   6.710   6.306  0.0000  0.0000  0.0000
 1728SOL     MW11720   2.762   6.750   6.342  0.0000  0.0000  0.0000
 1729SOL     OW11721   1.374   7.152   1.571  0.0000  0.0000  0.0000
 1729SOL    HW111722   1.410   7.071   1.607  0.0000  0.0000  0.0000
 1729SOL    HW211723   1.451   7.205   1.549  0.0000  0.0000  0.0000
 1729SOL     MW11724   1.389   7.149   1.573  0.0000  0.0000  0.0000
 1730SOL     OW11725   0.689   3.442   5.601  0.0000  0.0000  0.0000
 1730SOL    HW111726   0.623   3.456   5.670  0.0000  0.0000  0.0000
 1730SOL    HW211727   0.640   3.403   5.529  0.0000  0.0000  0.0000
 1730SOL     MW11728   0.674   3.439   5.601  0.0000  0.0000  0.0000
 1731SOL     OW11729   0.046   5.476   4.928  0.0000  0.0000  0.0000
 1731SOL    HW111730   0.097   5.414   4.877  0.0000  0.0000  0.0000
 1731SOL    HW211731   0.039   5.554   4.872  0.0000  0.0000  0.0000
 1731SOL     MW11732   0.052   5.478   4.914  0.0000  0.0000  0.0000
 1732SOL     OW11733   1.608   5.337   5.741  0.0000  0.0000  0.0000
 1732SOL    HW111734   1.553   5.264   5.769  0.0000  0.0000  0.0000
 1732SOL    HW211735   1.655   5.362   5.820  0.0000  0.0000  0.0000
 1732SOL     MW11736   1.607   5.330   5.755  0.0000  0.0000  0.0000
 1733SOL     OW11737   3.938   3.310   2.584  0.0000  0.0000  0.0000
 1733SOL    HW111738   3.857   3.279   2.543  0.0000  0.0000  0.0000
 1733SOL    HW211739   3.908   3.362   2.659  0.0000  0.0000  0.0000
 1733SOL     MW11740   3.923   3.313   2.588  0.0000  0.0000  0.0000
 1734SOL     OW11741   4.541   6.648   5.146  0.0000  0.0000  0.0000
 1734SOL    HW111742   4.505   6.656   5.057  0.0000  0.0000  0.0000
 1734SOL    HW211743   4.606   6.717   5.151  0.0000  0.0000  0.0000
 1734SOL     MW11744   4.545   6.658   5.135  0.0000  0.0000  0.0000
 1735SOL     OW11745   2.558   3.329   1.593  0.0000  0.0000  0.0000
 1735SOL    HW111746   2.516   3.283   1.520  0.0000  0.0000  0.0000
 1735SOL    HW211747   2.646   3.291   1.597  0.0000  0.0000  0.0000
 1735SOL     MW11748   2.564   3.318   1.584  0.0000  0.0000  0.0000
 1736SOL     OW11749   0.289   6.652   1.677  0.0000  0.0000  0.0000
 1736SOL    HW111750   0.277   6.622   1.587  0.0000  0.0000  0.0000
 1736SOL    HW211751   0.373   6.697   1.676  0.0000  0.0000  0.0000
 1736SOL     MW11752   0.298   6.654   1.665  0.0000  0.0000  0.0000
 1737SOL     OW11753   3.634   3.414   1.750  0.0000  0.0000  0.0000
 1737SOL    HW111754   3.681   3.331   1.755  0.0000  0.0000  0.0000
 1737SOL    HW211755   3.549   3.396   1.789  0.0000  0.0000  0.0000
 1737SOL     MW11756   3.629   3.401   1.756  0.0000  0.0000  0.0000
 1738SOL     OW11757   4.109   2.640   2.464  0.0000  0.0000  0.0000
 1738SOL    HW111758   4.201   2.663   2.453  0.0000  0.0000  0.0000
 1738SOL    HW211759   4.101   2.554   2.422  0.0000  0.0000  0.0000
 1738SOL     MW11760   4.120   2.631   2.457  0.0000  0.0000  0.0000
 1739SOL     OW11761   2.192   2.837   5.591  0.0000  0.0000  0.0000
 1739SOL    HW111762   2.208   2.747   5.620  0.0000  0.0000  0.0000
 1739SOL    HW211763   2.102   2.837   5.560  0.0000  0.0000  0.0000
 1739SOL     MW11764   2.182   2.825   5.591  0.0000  0.0000  0.0000
 1740SOL     OW11765   1.094   4.683   6.536  0.0000  0.0000  0.0000
 1740SOL    HW111766   1.021   4.621   6.531  0.0000  0.0000  0.0000
 1740SOL    HW211767   1.121   4.696   6.445  0.0000  0.0000  0.0000
 1740SOL     MW11768   1.088   4.677   6.523  0.0000  0.0000  0.0000
 1741SOL     OW11769   0.866   5.867   6.462  0.0000  0.0000  0.0000
 1741SOL    HW111770   0.799   5.800   6.479  0.0000  0.0000  0.0000
 1741SOL    HW211771   0.936   5.819   6.417  0.0000  0.0000  0.0000
 1741SOL     MW11772   0.867   5.852   6.458  0.0000  0.0000  0.0000
 1742SOL     OW11773   1.044   5.058   2.650  0.0000  0.0000  0.0000
 1742SOL    HW111774   1.130   5.030   2.618  0.0000  0.0000  0.0000
 1742SOL    HW211775   1.033   5.147   2.615  0.0000  0.0000  0.0000
 1742SOL     MW11776   1.054   5.066   2.641  0.0000  0.0000  0.0000
 1743SOL     OW11777   0.362   6.673   6.144  0.0000  0.0000  0.0000
 1743SOL    HW111778   0.284   6.618   6.150  0.0000  0.0000  0.0000
 1743SOL    HW211779   0.378   6.682   6.050  0.0000  0.0000  0.0000
 1743SOL     MW11780   0.353   6.667   6.133  0.0000  0.0000  0.0000
 1744SOL     OW11781   1.378   2.960   5.557  0.0000  0.0000  0.0000
 1744SOL    HW111782   1.434   2.887   5.532  0.0000  0.0000  0.0000
 1744SOL    HW211783   1.393   3.026   5.488  0.0000  0.0000  0.0000
 1744SOL     MW11784   1.387   2.959   5.544  0.0000  0.0000  0.0000
 1745SOL     OW11785   1.082   5.764   1.719  0.0000  0.0000  0.0000
 1745SOL    HW111786   1.125   5.849   1.711  0.0000  0.0000  0.0000
 1745SOL    HW211787   1.049   5.745   1.632  0.0000  0.0000  0.0000
 1745SOL     MW11788   1.083   5.773   1.707  0.0000  0.0000  0.0000
 1746SOL     OW11789   1.709   3.434   6.089  0.0000  0.0000  0.0000
 1746SOL    HW111790   1.724   3.511   6.144  0.0000  0.0000  0.0000
 1746SOL    HW211791   1.624   3.449   6.048  0.0000  0.0000  0.0000
 1746SOL     MW11792   1.700   3.446   6.091  0.0000  0.0000  0.0000
 1747SOL     OW11793   1.481   4.677   6.528  0.0000  0.0000  0.0000
 1747SOL    HW111794   1.499   4.641   6.441  0.0000  0.0000  0.0000
 1747SOL    HW211795   1.388   4.699   6.526  0.0000  0.0000  0.0000
 1747SOL     MW11796   1.472   4.675   6.516  0.0000  0.0000  0.0000
 1748SOL     OW11797   0.300   4.228   5.871  0.0000  0.0000  0.0000
 1748SOL    HW111798   0.268   4.313   5.902  0.0000  0.0000  0.0000
 1748SOL    HW211799   0.392   4.241   5.853  0.0000  0.0000  0.0000
 1748SOL     MW11800   0.308   4.241   5.873  0.0000  0.0000  0.0000
 1749SOL     OW11801   4.381   5.475   2.615  0.0000  0.0000  0.0000
 1749SOL    HW111802   4.410   5.542   2.676  0.0000  0.0000  0.0000
 1749SOL    HW211803   4.407   5.507   2.529  0.0000  0.0000  0.0000
 1749SOL     MW11804   4.388   5.488   2.612  0.0000  0.0000  0.0000
 1750SOL     OW11805   0.409   7.029   2.011  0.0000  0.0000  0.0000
 1750SOL    HW111806   0.435   6.939   1.993  0.0000  0.0000  0.0000
 1750SOL    HW211807   0.362   7.024   2.095  0.0000  0.0000  0.0000
 1750SOL     MW11808   0.406   7.016   2.020  0.0000  0.0000  0.0000
 1751SOL     OW11809   4.080   3.235   5.820  0.0000  0.0000  0.0000
 1751SOL    HW111810   4.028   3.268   5.746  0.0000  0.0000  0.0000
 1751SOL    HW211811   4.043   3.279   5.896  0.0000  0.0000  0.0000
 1751SOL     MW11812   4.068   3.245   5.820  0.0000  0.0000  0.0000
 1752SOL     OW11813   1.365   6.037   2.734  0.0000  0.0000  0.0000
 1752SOL    HW111814   1.419   6.071   2.662  0.0000  0.0000  0.0000
 1752SOL    HW211815   1.363   6.108   2.798  0.0000  0.0000  0.0000
 1752SOL     MW11816   1.372   6.050   2.733  0.0000  0.0000  0.0000
 1753SOL     OW11817   2.693   5.722   1.967  0.0000  0.0000  0.0000
 1753SOL    HW111818   2.773   5.751   1.923  0.0000  0.0000  0.0000
 1753SOL    HW211819   2.664   5.799   2.016  0.0000  0.0000  0.0000
 1753SOL     MW11820   2.700   5.736   1.968  0.0000  0.0000  0.0000
 1754SOL     OW11821   0.393   3.191   6.393  0.0000  0.0000  0.0000
 1754SOL    HW111822   0.383   3.103   6.432  0.0000  0.0000  0.0000
 1754SOL    HW211823   0.327   3.244   6.437  0.0000  0.0000  0.0000
 1754SOL     MW11824   0.383   3.186   6.404  0.0000  0.0000  0.0000
 1755SOL     OW11825   3.994   5.272   6.203  0.0000  0.0000  0.0000
 1755SOL    HW111826   4.034   5.354   6.233  0.0000  0.0000  0.0000
 1755SOL    HW211827   3.914   5.264   6.254  0.0000  0.0000  0.0000
 1755SOL     MW11828   3.989   5.282   6.214  0.0000  0.0000  0.0000
 1756SOL     OW11829   2.331   3.080   5.677  0.0000  0.0000  0.0000
 1756SOL    HW111830   2.299   2.990   5.667  0.0000  0.0000  0.0000
 1756SOL    HW211831   2.254   3.135   5.667  0.0000  0.0000  0.0000
 1756SOL     MW11832   2.317   3.076   5.674  0.0000  0.0000  0.0000
 1757SOL     OW11833   1.336   6.300   6.124  0.0000  0.0000  0.0000
 1757SOL    HW111834   1.335   6.341   6.210  0.0000  0.0000  0.0000
 1757SOL    HW211835   1.406   6.345   6.077  0.0000  0.0000  0.0000
 1757SOL     MW11836   1.345   6.312   6.129  0.0000  0.0000  0.0000
 1758SOL     OW11837   4.098   4.116   1.665  0.0000  0.0000  0.0000
 1758SOL    HW111838   4.112   4.211   1.670  0.0000  0.0000  0.0000
 1758SOL    HW211839   4.004   4.105   1.681  0.0000  0.0000  0.0000
 1758SOL     MW11840   4.087   4.127   1.668  0.0000  0.0000  0.0000
 1759SOL     OW11841   4.481   6.809   2.215  0.0000  0.0000  0.0000
 1759SOL    HW111842   4.402   6.780   2.262  0.0000  0.0000  0.0000
 1759SOL    HW211843   4.522   6.728   2.185  0.0000  0.0000  0.0000
 1759SOL     MW11844   4.476   6.795   2.217  0.0000  0.0000  0.0000
 1760SOL     OW11845   4.182   2.620   5.643  0.0000  0.0000  0.0000
 1760SOL    HW111846   4.123   2.669   5.700  0.0000  0.0000  0.0000
 1760SOL    HW211847   4.125   2.586   5.573  0.0000  0.0000  0.0000
 1760SOL     MW11848   4.166   2.622   5.641  0.0000  0.0000  0.0000
 1761SOL     OW11849   3.341   5.540   6.052  0.0000  0.0000  0.0000
 1761SOL    HW111850   3.286   5.485   5.996  0.0000  0.0000  0.0000
 1761SOL    HW211851   3.370   5.481   6.122  0.0000  0.0000  0.0000
 1761SOL     MW11852   3.337   5.525   6.054  0.0000  0.0000  0.0000
 1762SOL     OW11853   4.378   6.956   6.225  0.0000  0.0000  0.0000
 1762SOL    HW111854   4.363   7.021   6.156  0.0000  0.0000  0.0000
 1762SOL    HW211855   4.467   6.926   6.211  0.0000  0.0000  0.0000
 1762SOL     MW11856   4.388   6.961   6.214  0.0000  0.0000  0.0000
 1763SOL     OW11857   2.350   2.777   5.929  0.0000  0.0000  0.0000
 1763SOL    HW111858   2.391   2.740   6.008  0.0000  0.0000  0.0000
 1763SOL    HW211859   2.277   2.719   5.910  0.0000  0.0000  0.0000
 1763SOL     MW11860   2.346   2.765   5.937  0.0000  0.0000  0.0000
 1764SOL     OW11861   3.475   3.697   6.357  0.0000  0.0000  0.0000
 1764SOL    HW111862   3.444   3.709   6.267  0.0000  0.0000  0.0000
 1764SOL    HW211863   3.414   3.748   6.410  0.0000  0.0000  0.0000
 1764SOL     MW11864   3.463   3.705   6.352  0.0000  0.0000  0.0000
 1765SOL     OW11865   1.850   6.747   2.599  0.0000  0.0000  0.0000
 1765SOL    HW111866   1.824   6.826   2.647  0.0000  0.0000  0.0000
 1765SOL    HW211867   1.882   6.779   2.515  0.0000  0.0000  0.0000
 1765SOL     MW11868   1.850   6.761   2.594  0.0000  0.0000  0.0000
 1766SOL     OW11869   1.493   7.150   5.528  0.0000  0.0000  0.0000
 1766SOL    HW111870   1.404   7.140   5.563  0.0000  0.0000  0.0000
 1766SOL    HW211871   1.513   7.064   5.490  0.0000  0.0000  0.0000
 1766SOL     MW11872   1.484   7.137   5.527  0.0000  0.0000  0.0000
 1767SOL     OW11873   4.001   4.441   6.446  0.0000  0.0000  0.0000
 1767SOL    HW111874   3.986   4.407   6.534  0.0000  0.0000  0.0000
 1767SOL    HW211875   4.081   4.397   6.416  0.0000  0.0000  0.0000
 1767SOL     MW11876   4.010   4.430   6.453  0.0000  0.0000  0.0000
 1768SOL     OW11877   4.139   4.012   2.275  0.0000  0.0000  0.0000
 1768SOL    HW111878   4.158   4.067   2.351  0.0000  0.0000  0.0000
 1768SOL    HW211879   4.126   4.073   2.203  0.0000  0.0000  0.0000
 1768SOL     MW11880   4.140   4.027   2.276  0.0000  0.0000  0.0000
 1769SOL     OW11881   3.704   3.711   2.059  0.0000  0.0000  0.0000
 1769SOL    HW111882   3.774   3.752   2.110  0.0000  0.0000  0.0000
 1769SOL    HW211883   3.749   3.644   2.007  0.0000  0.0000  0.0000
 1769SOL     MW11884   3.719   3.707   2.058  0.0000  0.0000  0.0000
 1770SOL     OW11885   2.665   3.702   6.298  0.0000  0.0000  0.0000
 1770SOL    HW111886   2.602   3.774   6.288  0.0000  0.0000  0.0000
 1770SOL    HW211887   2.616   3.635   6.346  0.0000  0.0000  0.0000
 1770SOL     MW11888   2.650   3.703   6.303  0.0000  0.0000  0.0000
 1771SOL     OW11889   4.395   6.057   6.074  0.0000  0.0000  0.0000
 1771SOL    HW111890   4.367   6.077   5.985  0.0000  0.0000  0.0000
 1771SOL    HW211891   4.355   5.973   6.095  0.0000  0.0000  0.0000
 1771SOL     MW11892   4.386   6.049   6.065  0.0000  0.0000  0.0000
 1772SOL     OW11893   1.542   6.128   2.565  0.0000  0.0000  0.0000
 1772SOL    HW111894   1.551   6.222   2.548  0.0000  0.0000  0.0000
 1772SOL    HW211895   1.604   6.110   2.635  0.0000  0.0000  0.0000
 1772SOL     MW11896   1.552   6.138   2.572  0.0000  0.0000  0.0000
 1773SOL     OW11897   2.106   3.233   5.639  0.0000  0.0000  0.0000
 1773SOL    HW111898   2.051   3.155   5.649  0.0000  0.0000  0.0000
 1773SOL    HW211899   2.106   3.250   5.545  0.0000  0.0000  0.0000
 1773SOL     MW11900   2.099   3.225   5.628  0.0000  0.0000  0.0000
 1774SOL     OW11901   0.893   4.649   5.028  0.0000  0.0000  0.0000
 1774SOL    HW111902   0.921   4.737   5.003  0.0000  0.0000  0.0000
 1774SOL    HW211903   0.804   4.660   5.061  0.0000  0.0000  0.0000
 1774SOL     MW11904   0.885   4.662   5.029  0.0000  0.0000  0.0000
 1775SOL     OW11905   1.008   2.872   2.610  0.0000  0.0000  0.0000
 1775SOL    HW111906   0.981   2.920   2.532  0.0000  0.0000  0.0000
 1775SOL    HW211907   1.075   2.811   2.578  0.0000  0.0000  0.0000
 1775SOL     MW11908   1.014   2.871   2.595  0.0000  0.0000  0.0000
 1776SOL     OW11909   0.549   6.063   5.677  0.0000  0.0000  0.0000
 1776SOL    HW111910   0.555   6.050   5.772  0.0000  0.0000  0.0000
 1776SOL    HW211911   0.495   5.989   5.647  0.0000  0.0000  0.0000
 1776SOL     MW11912   0.543   6.051   5.685  0.0000  0.0000  0.0000
 1777SOL     OW11913   3.047   6.128   1.841  0.0000  0.0000  0.0000
 1777SOL    HW111914   3.018   6.157   1.927  0.0000  0.0000  0.0000
 1777SOL    HW211915   2.973   6.145   1.783  0.0000  0.0000  0.0000
 1777SOL     MW11916   3.033   6.134   1.844  0.0000  0.0000  0.0000
 1778SOL     OW11917   2.428   7.058   6.443  0.0000  0.0000  0.0000
 1778SOL    HW111918   2.476   7.052   6.526  0.0000  0.0000  0.0000
 1778SOL    HW211919   2.399   7.150   6.439  0.0000  0.0000  0.0000
 1778SOL     MW11920   2.430   7.070   6.453  0.0000  0.0000  0.0000
 1779SOL     OW11921   1.141   3.101   6.506  0.0000  0.0000  0.0000
 1779SOL    HW111922   1.229   3.080   6.537  0.0000  0.0000  0.0000
 1779SOL    HW211923   1.086   3.030   6.540  0.0000  0.0000  0.0000
 1779SOL     MW11924   1.145   3.089   6.514  0.0000  0.0000  0.0000
 1780SOL     OW11925   1.519   3.523   4.136  0.0000  0.0000  0.0000
 1780SOL    HW111926   1.577   3.541   4.062  0.0000  0.0000  0.0000
 1780SOL    HW211927   1.516   3.428   4.141  0.0000  0.0000  0.0000
 1780SOL     MW11928   1.526   3.513   4.127  0.0000  0.0000  0.0000
 1781SOL     OW11929   2.154   6.297   6.002  0.0000  0.0000  0.0000
 1781SOL    HW111930   2.076   6.321   5.951  0.0000  0.0000  0.0000
 1781SOL    HW211931   2.184   6.216   5.962  0.0000  0.0000  0.0000
 1781SOL     MW11932   2.148   6.289   5.990  0.0000  0.0000  0.0000
 1782SOL     OW11933   1.361   3.562   3.048  0.0000  0.0000  0.0000
 1782SOL    HW111934   1.305   3.530   3.119  0.0000  0.0000  0.0000
 1782SOL    HW211935   1.299   3.590   2.980  0.0000  0.0000  0.0000
 1782SOL     MW11936   1.345   3.562   3.048  0.0000  0.0000  0.0000
 1783SOL     OW11937   0.742   7.050   6.172  0.0000  0.0000  0.0000
 1783SOL    HW111938   0.674   7.089   6.117  0.0000  0.0000  0.0000
 1783SOL    HW211939   0.693   7.001   6.238  0.0000  0.0000  0.0000
 1783SOL     MW11940   0.726   7.049   6.173  0.0000  0.0000  0.0000
 1784SOL     OW11941   1.979   6.155   6.171  0.0000  0.0000  0.0000
 1784SOL    HW111942   1.986   6.070   6.127  0.0000  0.0000  0.0000
 1784SOL    HW211943   2.048   6.208   6.131  0.0000  0.0000  0.0000
 1784SOL     MW11944   1.989   6.151   6.160  0.0000  0.0000  0.0000
 1785SOL     OW11945   0.051   5.767   5.876  0.0000  0.0000  0.0000
 1785SOL    HW111946   0.017   5.830   5.939  0.0000  0.0000  0.0000
 1785SOL    HW211947  -0.013   5.767   5.805  0.0000  0.0000  0.0000
 1785SOL     MW11948   0.038   5.775   5.875  0.0000  0.0000  0.0000
 1786SOL     OW11949   0.607   2.825   5.132  0.0000  0.0000  0.0000
 1786SOL    HW111950   0.532   2.833   5.191  0.0000  0.0000  0.0000
 1786SOL    HW211951   0.619   2.913   5.096  0.0000  0.0000  0.0000
 1786SOL     MW11952   0.599   2.838   5.135  0.0000  0.0000  0.0000
 1787SOL     OW11953   1.695   7.111   6.050  0.0000  0.0000  0.0000
 1787SOL    HW111954   1.775   7.058   6.052  0.0000  0.0000  0.0000
 1787SOL    HW211955   1.725   7.201   6.062  0.0000  0.0000  0.0000
 1787SOL     MW11956   1.709   7.116   6.052  0.0000  0.0000  0.0000
 1788SOL     OW11957   2.919   6.707   5.701  0.0000  0.0000  0.0000
 1788SOL    HW111958   2.945   6.799   5.701  0.0000  0.0000  0.0000
 1788SOL    HW211959   2.967   6.669   5.627  0.0000  0.0000  0.0000
 1788SOL     MW11960   2.929   6.714   5.691  0.0000  0.0000  0.0000
 1789SOL     OW11961   4.048   2.883   6.125  0.0000  0.0000  0.0000
 1789SOL    HW111962   4.085   2.923   6.203  0.0000  0.0000  0.0000
 1789SOL    HW211963   3.999   2.807   6.158  0.0000  0.0000  0.0000
 1789SOL     MW11964   4.047   2.878   6.139  0.0000  0.0000  0.0000
 1790SOL     OW11965   2.489   4.836   2.638  0.0000  0.0000  0.0000
 1790SOL    HW111966   2.539   4.784   2.576  0.0000  0.0000  0.0000
 1790SOL    HW211967   2.430   4.889   2.584  0.0000  0.0000  0.0000
 1790SOL     MW11968   2.488   4.836   2.623  0.0000  0.0000  0.0000
 1791SOL     OW11969   2.359   7.006   5.500  0.0000  0.0000  0.0000
 1791SOL    HW111970   2.276   6.960   5.497  0.0000  0.0000  0.0000
 1791SOL    HW211971   2.419   6.953   5.448  0.0000  0.0000  0.0000
 1791SOL     MW11972   2.356   6.993   5.493  0.0000  0.0000  0.0000
 1792SOL     OW11973   4.447   4.828   6.092  0.0000  0.0000  0.0000
 1792SOL    HW111974   4.376   4.833   6.156  0.0000  0.0000  0.0000
 1792SOL    HW211975   4.414   4.770   6.023  0.0000  0.0000  0.0000
 1792SOL     MW11976   4.433   4.821   6.091  0.0000  0.0000  0.0000
 1793SOL     OW11977   3.102   5.381   3.253  0.0000  0.0000  0.0000
 1793SOL    HW111978   3.074   5.299   3.296  0.0000  0.0000  0.0000
 1793SOL    HW211979   3.023   5.436   3.255  0.0000  0.0000  0.0000
 1793SOL     MW11980   3.088   5.377   3.259  0.0000  0.0000  0.0000
 1794SOL     OW11981   2.627   3.236   2.448  0.0000  0.0000  0.0000
 1794SOL    HW111982   2.715   3.199   2.442  0.0000  0.0000  0.0000
 1794SOL    HW211983   2.638   3.318   2.495  0.0000  0.0000  0.0000
 1794SOL     MW11984   2.640   3.242   2.453  0.0000  0.0000  0.0000
 1795MPD2  CA1611985   2.526   2.687  11.406  0.0000  0.0000  0.0000
 1795MPD2  CA1711986   2.396   2.699  11.452  0.0000  0.0000  0.0000
 1795MPD2  CA1811987   2.287   2.663  11.369  0.0000  0.0000  0.0000
 1795MPD2  CA1911988   2.312   2.613  11.245  0.0000  0.0000  0.0000
 1795MPD2  CA2011989   2.444   2.603  11.193  0.0000  0.0000  0.0000
 1795MPD2  CA2111990   2.551   2.637  11.278  0.0000  0.0000  0.0000
 1795MPD2  HA2211991   2.378   2.722  11.556  0.0000  0.0000  0.0000
 1795MPD2  HA2311992   2.242   2.577  11.170  0.0000  0.0000  0.0000
 1795MPD2  HA2411993   2.461   2.565  11.093  0.0000  0.0000  0.0000
 1795MPD2  HA2511994   2.652   2.636  11.239  0.0000  0.0000  0.0000
 1795MPD2  HN2611995   2.659   2.818  11.483  0.0000  0.0000  0.0000
 1795MPD2  HN2711996   2.149   2.730  11.493  0.0000  0.0000  0.0000
 1795MPD2  NB2811997   2.632   2.721  11.494  0.0000  0.0000  0.0000
 1795MPD2  NB2911998   2.158   2.659  11.421  0.0000  0.0000  0.0000
 1796MPD2  CA1611999   2.452   2.426  11.920  0.0000  0.0000  0.0000
 1796MPD2  CA1712000   2.347   2.512  11.890  0.0000  0.0000  0.0000
 1796MPD2  CA1812001   2.229   2.511  11.966  0.0000  0.0000  0.0000
 1796MPD2  CA1912002   2.221   2.428  12.079  0.0000  0.0000  0.0000
 1796MPD2  CA2012003   2.330   2.349  12.115  0.0000  0.0000  0.0000
 1796MPD2  CA2112004   2.448   2.355  12.041  0.0000  0.0000  0.0000
 1796MPD2  HA2212005   2.353   2.577  11.803  0.0000  0.0000  0.0000
 1796MPD2  HA2312006   2.133   2.429  12.144  0.0000  0.0000  0.0000
 1796MPD2  HA2412007   2.329   2.295  12.209  0.0000  0.0000  0.0000
 1796MPD2  HA2512008   2.535   2.302  12.078  0.0000  0.0000  0.0000
 1796MPD2  HN2612009   2.650   2.457  11.895  0.0000  0.0000  0.0000
 1796MPD2  HN2712010   2.143   2.646  11.847  0.0000  0.0000  0.0000
 1796MPD2  NB2812011   2.577   2.411  11.842  0.0000  0.0000  0.0000
 1796MPD2  NB2912012   2.117   2.578  11.917  0.0000  0.0000  0.0000
 1797TMC2   C2012013   1.635   2.376  11.580  0.0000  0.0000  0.0000
 1797TMC2  CA2112014   1.760   2.452  11.608  0.0000  0.0000  0.0000
 1797TMC2  CA2212015   1.804   2.484  11.737  0.0000  0.0000  0.0000
 1797TMC2  CA2312016   1.936   2.529  11.757  0.0000  0.0000  0.0000
 1797TMC2  CA2412017   2.013   2.562  11.643  0.0000  0.0000  0.0000
 1797TMC2  CA2512018   1.961   2.545  11.516  0.0000  0.0000  0.0000
 1797TMC2  CA2612019   1.840   2.483  11.493  0.0000  0.0000  0.0000
 1797TMC2  CB2712020   1.990   2.520  11.898  0.0000  0.0000  0.0000
 1797TMC2  CB2812021   2.054   2.567  11.398  0.0000  0.0000  0.0000
 1797TMC2  HA2912022   1.740   2.451  11.818  0.0000  0.0000  0.0000
 1797TMC2  HA3012023   2.116   2.593  11.658  0.0000  0.0000  0.0000
 1797TMC2  HA3112024   1.809   2.470  11.390  0.0000  0.0000  0.0000
 1797TMC2  HO3212025   1.566   2.443  11.743  0.0000  0.0000  0.0000
 1797TMC2   O3312026   1.614   2.316  11.476  0.0000  0.0000  0.0000
 1797TMC2   O3412027   1.932   2.465  11.994  0.0000  0.0000  0.0000
 1797TMC2   O3512028   2.045   2.510  11.294  0.0000  0.0000  0.0000
 1797TMC2  OH3612029   1.548   2.368  11.684  0.0000  0.0000  0.0000
 1798MPD2  CA1612030   3.974   1.270  12.433  0.0000  0.0000  0.0000
 1798MPD2  CA1712031   3.862   1.352  12.450  0.0000  0.0000  0.0000
 1798MPD2  CA1812032   3.862   1.466  12.529  0.0000  0.0000  0.0000
 1798MPD2  CA1912033   3.975   1.502  12.601  0.0000  0.0000  0.0000
 1798MPD2  CA2012034   4.086   1.414  12.594  0.0000  0.0000  0.0000
 1798MPD2  CA2112035   4.085   1.308  12.513  0.0000  0.0000  0.0000
 1798MPD2  HA2212036   3.780   1.334  12.381  0.0000  0.0000  0.0000
 1798MPD2  HA2312037   3.975   1.592  12.661  0.0000  0.0000  0.0000
 1798MPD2  HA2412038   4.177   1.413  12.655  0.0000  0.0000  0.0000
 1798MPD2  HA2512039   4.179   1.255  12.499  0.0000  0.0000  0.0000
 1798MPD2  HN2612040   3.889   1.157  12.278  0.0000  0.0000  0.0000
 1798MPD2  HN2712041   3.678   1.545  12.604  0.0000  0.0000  0.0000
 1798MPD2  NB2812042   3.977   1.177  12.324  0.0000  0.0000  0.0000
 1798MPD2  NB2912043   3.748   1.552  12.530  0.0000  0.0000  0.0000
 1799MPD2  CA1612044   3.112   2.187  11.925  0.0000  0.0000  0.0000
 1799MPD2  CA1712045   3.153   2.137  12.046  0.0000  0.0000  0.0000
 1799MPD2  CA1812046   3.267   2.064  12.049  0.0000  0.0000  0.0000
 1799MPD2  CA1912047   3.331   2.019  11.927  0.0000  0.0000  0.0000
 1799MPD2  CA2012048   3.301   2.082  11.809  0.0000  0.0000  0.0000
 1799MPD2  CA2112049   3.185   2.159  11.809  0.0000  0.0000  0.0000
 1799MPD2  HA2212050   3.094   2.159  12.135  0.0000  0.0000  0.0000
 1799MPD2  HA2312051   3.421   1.958  11.934  0.0000  0.0000  0.0000
 1799MPD2  HA2412052   3.356   2.052  11.720  0.0000  0.0000  0.0000
 1799MPD2  HA2512053   3.135   2.181  11.715  0.0000  0.0000  0.0000
 1799MPD2  HN2612054   3.005   2.345  11.867  0.0000  0.0000  0.0000
 1799MPD2  HN2712055   3.229   1.958  12.221  0.0000  0.0000  0.0000
 1799MPD2  NB2812056   2.992   2.255  11.912  0.0000  0.0000  0.0000
 1799MPD2  NB2912057   3.306   1.999  12.168  0.0000  0.0000  0.0000
 1800TMC2   C2012058   3.265   1.733  12.617  0.0000  0.0000  0.0000
 1800TMC2  CA2112059   3.381   1.765  12.532  0.0000  0.0000  0.0000
 1800TMC2  CA2212060   3.352   1.847  12.425  0.0000  0.0000  0.0000
 1800TMC2  CA2312061   3.452   1.878  12.331  0.0000  0.0000  0.0000
 1800TMC2  CA2412062   3.575   1.813  12.345  0.0000  0.0000  0.0000
 1800TMC2  CA2512063   3.592   1.712  12.437  0.0000  0.0000  0.0000
 1800TMC2  CA2612064   3.494   1.687  12.524  0.0000  0.0000  0.0000
 1800TMC2  CB2712065   3.437   1.969  12.212  0.0000  0.0000  0.0000
 1800TMC2  CB2812066   3.725   1.641  12.432  0.0000  0.0000  0.0000
 1800TMC2  HA2912067   3.254   1.892  12.416  0.0000  0.0000  0.0000
 1800TMC2  HA3012068   3.642   1.833  12.262  0.0000  0.0000  0.0000
 1800TMC2  HA3112069   3.514   1.609  12.597  0.0000  0.0000  0.0000
 1800TMC2  HO3212070   3.256   1.914  12.661  0.0000  0.0000  0.0000
 1800TMC2   O3312071   3.251   1.614  12.645  0.0000  0.0000  0.0000
 1800TMC2   O3412072   3.534   2.008  12.150  0.0000  0.0000  0.0000
 1800TMC2   O3512073   3.816   1.666  12.353  0.0000  0.0000  0.0000
 1800TMC2  OH3612074   3.202   1.834  12.676  0.0000  0.0000  0.0000
 1801MPD1   CA112075  -0.448   1.830   9.774  0.0000  0.0000  0.0000
 1801MPD1   CA212076  -0.378   1.719   9.829  0.0000  0.0000  0.0000
 1801MPD1   CA312077  -0.242   1.715   9.864  0.0000  0.0000  0.0000
 1801MPD1   CA412078  -0.177   1.838   9.857  0.0000  0.0000  0.0000
 1801MPD1   CA512079  -0.246   1.944   9.807  0.0000  0.0000  0.0000
 1801MPD1   CA612080  -0.383   1.954   9.776  0.0000  0.0000  0.0000
 1801MPD1  HA1012081  -0.425   2.048   9.742  0.0000  0.0000  0.0000
 1801MPD1   HA712082  -0.437   1.630   9.847  0.0000  0.0000  0.0000
 1801MPD1   HA812083  -0.073   1.858   9.882  0.0000  0.0000  0.0000
 1801MPD1   HA912084  -0.193   2.039   9.801  0.0000  0.0000  0.0000
 1801MPD1  HN1112085  -0.614   1.866   9.662  0.0000  0.0000  0.0000
 1801MPD1  HN1212086  -0.217   1.509   9.868  0.0000  0.0000  0.0000
 1801MPD1  HN1312087  -0.073   1.597   9.898  0.0000  0.0000  0.0000
 1801MPD1  NB1412088  -0.586   1.825   9.751  0.0000  0.0000  0.0000
 1801MPD1  NH1512089  -0.174   1.597   9.895  0.0000  0.0000  0.0000
 1802MPD1   CA112090   0.479   3.230  11.443  0.0000  0.0000  0.0000
 1802MPD1   CA212091   0.529   3.177  11.567  0.0000  0.0000  0.0000
 1802MPD1   CA312092   0.667   3.176  11.588  0.0000  0.0000  0.0000
 1802MPD1   CA412093   0.755   3.211  11.484  0.0000  0.0000  0.0000
 1802MPD1   CA512094   0.704   3.248  11.359  0.0000  0.0000  0.0000
 1802MPD1   CA612095   0.567   3.266  11.341  0.0000  0.0000  0.0000
 1802MPD1  HA1012096   0.528   3.305  11.248  0.0000  0.0000  0.0000
 1802MPD1   HA712097   0.466   3.138  11.646  0.0000  0.0000  0.0000
 1802MPD1   HA812098   0.862   3.201  11.498  0.0000  0.0000  0.0000
 1802MPD1   HA912099   0.779   3.268  11.283  0.0000  0.0000  0.0000
 1802MPD1  HN1112100   0.298   3.299  11.512  0.0000  0.0000  0.0000
 1802MPD1  HN1212101   0.626   3.174  11.782  0.0000  0.0000  0.0000
 1802MPD1  HN1312102   0.795   3.176  11.745  0.0000  0.0000  0.0000
 1802MPD1  NB1412103   0.337   3.253  11.430  0.0000  0.0000  0.0000
 1802MPD1  NH1512104   0.701   3.153  11.717  0.0000  0.0000  0.0000
 1803MPD1   CA112105   2.473  -0.549  10.067  0.0000  0.0000  0.0000
 1803MPD1   CA212106   2.488  -0.655   9.976  0.0000  0.0000  0.0000
 1803MPD1   CA312107   2.610  -0.716   9.954  0.0000  0.0000  0.0000
 1803MPD1   CA412108   2.722  -0.675  10.024  0.0000  0.0000  0.0000
 1803MPD1   CA512109   2.707  -0.567  10.114  0.0000  0.0000  0.0000
 1803MPD1   CA612110   2.591  -0.503  10.134  0.0000  0.0000  0.0000
 1803MPD1  HA1012111   2.589  -0.434  10.218  0.0000  0.0000  0.0000
 1803MPD1   HA712112   2.398  -0.702   9.936  0.0000  0.0000  0.0000
 1803MPD1   HA812113   2.820  -0.720  10.013  0.0000  0.0000  0.0000
 1803MPD1   HA912114   2.795  -0.539  10.171  0.0000  0.0000  0.0000
 1803MPD1  HN1112115   2.296  -0.438  10.031  0.0000  0.0000  0.0000
 1803MPD1  HN1212116   2.533  -0.863   9.842  0.0000  0.0000  0.0000
 1803MPD1  HN1312117   2.688  -0.898   9.899  0.0000  0.0000  0.0000
 1803MPD1  NB1412118   2.353  -0.487  10.099  0.0000  0.0000  0.0000
 1803MPD1  NH1512119   2.623  -0.826   9.870  0.0000  0.0000  0.0000
 1804MPD1   CA112120   3.514   2.191  10.954  0.0000  0.0000  0.0000
 1804MPD1   CA212121   3.458   2.271  11.054  0.0000  0.0000  0.0000
 1804MPD1   CA312122   3.462   2.411  11.037  0.0000  0.0000  0.0000
 1804MPD1   CA412123   3.528   2.468  10.929  0.0000  0.0000  0.0000
 1804MPD1   CA512124   3.577   2.385  10.825  0.0000  0.0000  0.0000
 1804MPD1   CA612125   3.569   2.246  10.841  0.0000  0.0000  0.0000
 1804MPD1  HA1012126   3.606   2.181  10.762  0.0000  0.0000  0.0000
 1804MPD1   HA712127   3.414   2.221  11.140  0.0000  0.0000  0.0000
 1804MPD1   HA812128   3.541   2.575  10.915  0.0000  0.0000  0.0000
 1804MPD1   HA912129   3.615   2.423  10.731  0.0000  0.0000  0.0000
 1804MPD1  HN1112130   3.583   2.013  11.039  0.0000  0.0000  0.0000
 1804MPD1  HN1212131   3.332   2.455  11.189  0.0000  0.0000  0.0000
 1804MPD1  HN1312132   3.409   2.592  11.115  0.0000  0.0000  0.0000
 1804MPD1  NB1412133   3.522   2.050  10.968  0.0000  0.0000  0.0000
 1804MPD1  NH1512134   3.409   2.493  11.136  0.0000  0.0000  0.0000
 1805MPD1   CA112135   2.432   2.952  10.961  0.0000  0.0000  0.0000
 1805MPD1   CA212136   2.562   2.909  10.972  0.0000  0.0000  0.0000
 1805MPD1   CA312137   2.671   2.993  10.945  0.0000  0.0000  0.0000
 1805MPD1   CA412138   2.640   3.129  10.915  0.0000  0.0000  0.0000
 1805MPD1   CA512139   2.513   3.177  10.911  0.0000  0.0000  0.0000
 1805MPD1   CA612140   2.412   3.094  10.948  0.0000  0.0000  0.0000
 1805MPD1  HA1012141   2.311   3.132  10.936  0.0000  0.0000  0.0000
 1805MPD1   HA712142   2.578   2.802  10.981  0.0000  0.0000  0.0000
 1805MPD1   HA812143   2.715   3.207  10.902  0.0000  0.0000  0.0000
 1805MPD1   HA912144   2.487   3.279  10.884  0.0000  0.0000  0.0000
 1805MPD1  HN1112145   2.243   2.906  11.048  0.0000  0.0000  0.0000
 1805MPD1  HN1212146   2.805   2.844  10.962  0.0000  0.0000  0.0000
 1805MPD1  HN1312147   2.881   3.002  10.947  0.0000  0.0000  0.0000
 1805MPD1  NB1412148   2.317   2.866  10.991  0.0000  0.0000  0.0000
 1805MPD1  NH1512149   2.801   2.941  10.935  0.0000  0.0000  0.0000
 1806MPD1   CA112150   0.142   2.794  11.340  0.0000  0.0000  0.0000
 1806MPD1   CA212151   0.258   2.742  11.408  0.0000  0.0000  0.0000
 1806MPD1   CA312152   0.311   2.809  11.521  0.0000  0.0000  0.0000
 1806MPD1   CA412153   0.243   2.924  11.574  0.0000  0.0000  0.0000
 1806MPD1   CA512154   0.132   2.973  11.512  0.0000  0.0000  0.0000
 1806MPD1   CA612155   0.077   2.904  11.399  0.0000  0.0000  0.0000
 1806MPD1  HA1012156  -0.017   2.935  11.355  0.0000  0.0000  0.0000
 1806MPD1   HA712157   0.316   2.662  11.362  0.0000  0.0000  0.0000
 1806MPD1   HA812158   0.290   2.975  11.657  0.0000  0.0000  0.0000
 1806MPD1   HA912159   0.108   3.072  11.549  0.0000  0.0000  0.0000
 1806MPD1  HN1112160   0.127   2.622  11.225  0.0000  0.0000  0.0000
 1806MPD1  HN1212161   0.465   2.817  11.655  0.0000  0.0000  0.0000
 1806MPD1  HN1312162   0.456   2.668  11.559  0.0000  0.0000  0.0000
 1806MPD1  NB1412163   0.091   2.716  11.234  0.0000  0.0000  0.0000
 1806MPD1  NH1512164   0.424   2.761  11.581  0.0000  0.0000  0.0000
 1807MPD1   CA112165  -0.300   0.870  11.148  0.0000  0.0000  0.0000
 1807MPD1   CA212166  -0.300   0.964  11.045  0.0000  0.0000  0.0000
 1807MPD1   CA312167  -0.208   0.961  10.942  0.0000  0.0000  0.0000
 1807MPD1   CA412168  -0.118   0.855  10.936  0.0000  0.0000  0.0000
 1807MPD1   CA512169  -0.122   0.753  11.029  0.0000  0.0000  0.0000
 1807MPD1   CA612170  -0.204   0.773  11.142  0.0000  0.0000  0.0000
 1807MPD1  HA1012171  -0.205   0.691  11.213  0.0000  0.0000  0.0000
 1807MPD1   HA712172  -0.361   1.053  11.057  0.0000  0.0000  0.0000
 1807MPD1   HA812173  -0.045   0.848  10.856  0.0000  0.0000  0.0000
 1807MPD1   HA912174  -0.048   0.674  11.023  0.0000  0.0000  0.0000
 1807MPD1  HN1112175  -0.491   0.915  11.218  0.0000  0.0000  0.0000
 1807MPD1  HN1212176  -0.271   1.132  10.839  0.0000  0.0000  0.0000
 1807MPD1  HN1312177  -0.107   1.086  10.814  0.0000  0.0000  0.0000
 1807MPD1  NB1412178  -0.404   0.876  11.251  0.0000  0.0000  0.0000
 1807MPD1  NH1512179  -0.200   1.060  10.846  0.0000  0.0000  0.0000
 1808MPD1   CA112180  -0.152   3.063  10.865  0.0000  0.0000  0.0000
 1808MPD1   CA212181  -0.234   3.177  10.863  0.0000  0.0000  0.0000
 1808MPD1   CA312182  -0.357   3.188  10.791  0.0000  0.0000  0.0000
 1808MPD1   CA412183  -0.394   3.076  10.720  0.0000  0.0000  0.0000
 1808MPD1   CA512184  -0.317   2.961  10.720  0.0000  0.0000  0.0000
 1808MPD1   CA612185  -0.202   2.950  10.801  0.0000  0.0000  0.0000
 1808MPD1  HA1012186  -0.156   2.851  10.804  0.0000  0.0000  0.0000
 1808MPD1   HA712187  -0.197   3.260  10.922  0.0000  0.0000  0.0000
 1808MPD1   HA812188  -0.490   3.066  10.670  0.0000  0.0000  0.0000
 1808MPD1   HA912189  -0.348   2.872  10.667  0.0000  0.0000  0.0000
 1808MPD1  HN1112190  -0.045   3.130  11.031  0.0000  0.0000  0.0000
 1808MPD1  HN1212191  -0.462   3.326  10.890  0.0000  0.0000  0.0000
 1808MPD1  HN1312192  -0.528   3.281  10.745  0.0000  0.0000  0.0000
 1808MPD1  NB1412193  -0.041   3.078  10.944  0.0000  0.0000  0.0000
 1808MPD1  NH1512194  -0.441   3.294  10.797  0.0000  0.0000  0.0000
 1809MPD2  CA1612195   0.289   1.418  11.974  0.0000  0.0000  0.0000
 1809MPD2  CA1712196   0.320   1.443  11.838  0.0000  0.0000  0.0000
 1809MPD2  CA1812197   0.362   1.574  11.798  0.0000  0.0000  0.0000
 1809MPD2  CA1912198   0.365   1.679  11.892  0.0000  0.0000  0.0000
 1809MPD2  CA2012199   0.325   1.657  12.024  0.0000  0.0000  0.0000
 1809MPD2  CA2112200   0.308   1.527  12.065  0.0000  0.0000  0.0000
 1809MPD2  HA2212201   0.299   1.368  11.763  0.0000  0.0000  0.0000
 1809MPD2  HA2312202   0.394   1.780  11.863  0.0000  0.0000  0.0000
 1809MPD2  HA2412203   0.323   1.740  12.094  0.0000  0.0000  0.0000
 1809MPD2  HA2512204   0.295   1.508  12.171  0.0000  0.0000  0.0000
 1809MPD2  HN2612205   0.236   1.217  11.946  0.0000  0.0000  0.0000
 1809MPD2  HN2712206   0.443   1.700  11.647  0.0000  0.0000  0.0000
 1809MPD2  NB2812207   0.261   1.284  12.018  0.0000  0.0000  0.0000
 1809MPD2  NB2912208   0.410   1.605  11.661  0.0000  0.0000  0.0000
 1810MPD1   CA112209   1.576  -0.529  10.433  0.0000  0.0000  0.0000
 1810MPD1   CA212210   1.569  -0.515  10.574  0.0000  0.0000  0.0000
 1810MPD1   CA312211   1.452  -0.535  10.649  0.0000  0.0000  0.0000
 1810MPD1   CA412212   1.338  -0.573  10.575  0.0000  0.0000  0.0000
 1810MPD1   CA512213   1.342  -0.576  10.436  0.0000  0.0000  0.0000
 1810MPD1   CA612214   1.459  -0.548  10.366  0.0000  0.0000  0.0000
 1810MPD1  HA1012215   1.451  -0.542  10.258  0.0000  0.0000  0.0000
 1810MPD1   HA712216   1.655  -0.485  10.632  0.0000  0.0000  0.0000
 1810MPD1   HA812217   1.243  -0.595  10.624  0.0000  0.0000  0.0000
 1810MPD1   HA912218   1.253  -0.609  10.384  0.0000  0.0000  0.0000
 1810MPD1  HN1112219   1.679  -0.439  10.282  0.0000  0.0000  0.0000
 1810MPD1  HN1212220   1.534  -0.553  10.842  0.0000  0.0000  0.0000
 1810MPD1  HN1312221   1.371  -0.572  10.832  0.0000  0.0000  0.0000
 1810MPD1  NB1412222   1.692  -0.494  10.366  0.0000  0.0000  0.0000
 1810MPD1  NH1512223   1.452  -0.530  10.788  0.0000  0.0000  0.0000
 1811MPD2  CA1612224   0.123   2.332  11.582  0.0000  0.0000  0.0000
 1811MPD2  CA1712225   0.025   2.256  11.646  0.0000  0.0000  0.0000
 1811MPD2  CA1812226  -0.113   2.289  11.622  0.0000  0.0000  0.0000
 1811MPD2  CA1912227  -0.151   2.403  11.559  0.0000  0.0000  0.0000
 1811MPD2  CA2012228  -0.055   2.470  11.485  0.0000  0.0000  0.0000
 1811MPD2  CA2112229   0.079   2.431  11.493  0.0000  0.0000  0.0000
 1811MPD2  HA2212230   0.058   2.170  11.704  0.0000  0.0000  0.0000
 1811MPD2  HA2312231  -0.255   2.433  11.554  0.0000  0.0000  0.0000
 1811MPD2  HA2412232  -0.082   2.550  11.416  0.0000  0.0000  0.0000
 1811MPD2  HA2512233   0.149   2.498  11.445  0.0000  0.0000  0.0000
 1811MPD2  HN2612234   0.277   2.209  11.643  0.0000  0.0000  0.0000
 1811MPD2  HN2712235  -0.211   2.189  11.781  0.0000  0.0000  0.0000
 1811MPD2  NB2812236   0.262   2.301  11.605  0.0000  0.0000  0.0000
 1811MPD2  NB2912237  -0.217   2.208  11.681  0.0000  0.0000  0.0000
 1812MPD1   CA112238  -0.194   0.512  11.983  0.0000  0.0000  0.0000
 1812MPD1   CA212239  -0.240   0.387  12.021  0.0000  0.0000  0.0000
 1812MPD1   CA312240  -0.265   0.353  12.154  0.0000  0.0000  0.0000
 1812MPD1   CA412241  -0.263   0.450  12.257  0.0000  0.0000  0.0000
 1812MPD1   CA512242  -0.227   0.576  12.219  0.0000  0.0000  0.0000
 1812MPD1   CA612243  -0.190   0.607  12.090  0.0000  0.0000  0.0000
 1812MPD1  HA1012244  -0.140   0.703  12.079  0.0000  0.0000  0.0000
 1812MPD1   HA712245  -0.248   0.307  11.947  0.0000  0.0000  0.0000
 1812MPD1   HA812246  -0.297   0.431  12.358  0.0000  0.0000  0.0000
 1812MPD1   HA912247  -0.231   0.653  12.295  0.0000  0.0000  0.0000
 1812MPD1  HN1112248  -0.061   0.593  11.847  0.0000  0.0000  0.0000
 1812MPD1  HN1212249  -0.388   0.232  12.257  0.0000  0.0000  0.0000
 1812MPD1  HN1312250  -0.339   0.171  12.110  0.0000  0.0000  0.0000
 1812MPD1  NB1412251  -0.152   0.549  11.849  0.0000  0.0000  0.0000
 1812MPD1  NH1512252  -0.313   0.228  12.190  0.0000  0.0000  0.0000
 1813MPD1   CA112253   0.545   2.108  11.102  0.0000  0.0000  0.0000
 1813MPD1   CA212254   0.482   2.219  11.165  0.0000  0.0000  0.0000
 1813MPD1   CA312255   0.506   2.353  11.121  0.0000  0.0000  0.0000
 1813MPD1   CA412256   0.583   2.372  11.008  0.0000  0.0000  0.0000
 1813MPD1   CA512257   0.644   2.258  10.946  0.0000  0.0000  0.0000
 1813MPD1   CA612258   0.630   2.128  10.992  0.0000  0.0000  0.0000
 1813MPD1  HA1012259   0.682   2.048  10.939  0.0000  0.0000  0.0000
 1813MPD1   HA712260   0.432   2.198  11.259  0.0000  0.0000  0.0000
 1813MPD1   HA812261   0.605   2.474  10.978  0.0000  0.0000  0.0000
 1813MPD1   HA912262   0.710   2.275  10.862  0.0000  0.0000  0.0000
 1813MPD1  HN1112263   0.634   1.930  11.099  0.0000  0.0000  0.0000
 1813MPD1  HN1212264   0.476   2.558  11.174  0.0000  0.0000  0.0000
 1813MPD1  HN1312265   0.411   2.442  11.284  0.0000  0.0000  0.0000
 1813MPD1  NB1412266   0.559   1.973  11.151  0.0000  0.0000  0.0000
 1813MPD1  NH1512267   0.453   2.462  11.194  0.0000  0.0000  0.0000
 1814MPD1   CA112268   0.222   2.374  10.524  0.0000  0.0000  0.0000
 1814MPD1   CA212269   0.168   2.256  10.474  0.0000  0.0000  0.0000
 1814MPD1   CA312270   0.246   2.172  10.396  0.0000  0.0000  0.0000
 1814MPD1   CA412271   0.371   2.216  10.345  0.0000  0.0000  0.0000
 1814MPD1   CA512272   0.417   2.343  10.384  0.0000  0.0000  0.0000
 1814MPD1   CA612273   0.353   2.412  10.485  0.0000  0.0000  0.0000
 1814MPD1  HA1012274   0.396   2.503  10.526  0.0000  0.0000  0.0000
 1814MPD1   HA712275   0.068   2.227  10.505  0.0000  0.0000  0.0000
 1814MPD1   HA812276   0.428   2.155  10.275  0.0000  0.0000  0.0000
 1814MPD1   HA912277   0.508   2.388  10.345  0.0000  0.0000  0.0000
 1814MPD1  HN1112278   0.067   2.508  10.570  0.0000  0.0000  0.0000
 1814MPD1  HN1212279   0.277   1.974  10.330  0.0000  0.0000  0.0000
 1814MPD1  HN1312280   0.119   2.003  10.388  0.0000  0.0000  0.0000
 1814MPD1  NB1412281   0.150   2.466  10.610  0.0000  0.0000  0.0000
 1814MPD1  NH1512282   0.204   2.042  10.349  0.0000  0.0000  0.0000
 1815MPD2  CA1612283   1.796   2.765  10.173  0.0000  0.0000  0.0000
 1815MPD2  CA1712284   1.776   2.704  10.294  0.0000  0.0000  0.0000
 1815MPD2  CA1812285   1.661   2.630  10.326  0.0000  0.0000  0.0000
 1815MPD2  CA1912286   1.557   2.626  10.227  0.0000  0.0000  0.0000
 1815MPD2  CA2012287   1.573   2.685  10.107  0.0000  0.0000  0.0000
 1815MPD2  CA2112288   1.696   2.750  10.073  0.0000  0.0000  0.0000
 1815MPD2  HA2212289   1.837   2.730  10.380  0.0000  0.0000  0.0000
 1815MPD2  HA2312290   1.471   2.562  10.241  0.0000  0.0000  0.0000
 1815MPD2  HA2412291   1.497   2.686  10.029  0.0000  0.0000  0.0000
 1815MPD2  HA2512292   1.702   2.799   9.976  0.0000  0.0000  0.0000
 1815MPD2  HN2612293   1.902   2.942  10.125  0.0000  0.0000  0.0000
 1815MPD2  HN2712294   1.611   2.658  10.515  0.0000  0.0000  0.0000
 1815MPD2  NB2812295   1.912   2.843  10.144  0.0000  0.0000  0.0000
 1815MPD2  NB2912296   1.641   2.583  10.454  0.0000  0.0000  0.0000
 1816MPD2  CA1612297   1.193   2.993  10.980  0.0000  0.0000  0.0000
 1816MPD2  CA1712298   1.254   2.880  10.925  0.0000  0.0000  0.0000
 1816MPD2  CA1812299   1.386   2.841  10.953  0.0000  0.0000  0.0000
 1816MPD2  CA1912300   1.468   2.937  11.014  0.0000  0.0000  0.0000
 1816MPD2  CA2012301   1.409   3.051  11.059  0.0000  0.0000  0.0000
 1816MPD2  CA2112302   1.278   3.083  11.046  0.0000  0.0000  0.0000
 1816MPD2  HA2212303   1.194   2.808  10.870  0.0000  0.0000  0.0000
 1816MPD2  HA2312304   1.569   2.901  11.033  0.0000  0.0000  0.0000
 1816MPD2  HA2412305   1.473   3.131  11.097  0.0000  0.0000  0.0000
 1816MPD2  HA2512306   1.241   3.175  11.090  0.0000  0.0000  0.0000
 1816MPD2  HN2612307   1.012   2.945  10.892  0.0000  0.0000  0.0000
 1816MPD2  HN2712308   1.500   2.732  10.817  0.0000  0.0000  0.0000
 1816MPD2  NB2812309   1.049   3.004  10.966  0.0000  0.0000  0.0000
 1816MPD2  NB2912310   1.435   2.720  10.894  0.0000  0.0000  0.0000
 1817MPD1   CA112311   0.883  -1.175  10.989  0.0000  0.0000  0.0000
 1817MPD1   CA212312   0.778  -1.165  10.893  0.0000  0.0000  0.0000
 1817MPD1   CA312313   0.796  -1.230  10.771  0.0000  0.0000  0.0000
 1817MPD1   CA412314   0.920  -1.279  10.736  0.0000  0.0000  0.0000
 1817MPD1   CA512315   1.029  -1.277  10.823  0.0000  0.0000  0.0000
 1817MPD1   CA612316   1.007  -1.234  10.950  0.0000  0.0000  0.0000
 1817MPD1  HA1012317   1.087  -1.241  11.022  0.0000  0.0000  0.0000
 1817MPD1   HA712318   0.682  -1.120  10.916  0.0000  0.0000  0.0000
 1817MPD1   HA812319   0.934  -1.319  10.636  0.0000  0.0000  0.0000
 1817MPD1   HA912320   1.122  -1.329  10.800  0.0000  0.0000  0.0000
 1817MPD1  HN1112321   0.759  -1.128  11.149  0.0000  0.0000  0.0000
 1817MPD1  HN1212322   0.603  -1.216  10.712  0.0000  0.0000  0.0000
 1817MPD1  HN1312323   0.688  -1.335  10.626  0.0000  0.0000  0.0000
 1817MPD1  NB1412324   0.857  -1.132  11.124  0.0000  0.0000  0.0000
 1817MPD1  NH1512325   0.693  -1.246  10.675  0.0000  0.0000  0.0000
 1818MPD1   CA112326   1.024  -1.116  11.795  0.0000  0.0000  0.0000
 1818MPD1   CA212327   1.039  -1.234  11.717  0.0000  0.0000  0.0000
 1818MPD1   CA312328   1.004  -1.362  11.763  0.0000  0.0000  0.0000
 1818MPD1   CA412329   0.927  -1.361  11.880  0.0000  0.0000  0.0000
 1818MPD1   CA512330   0.904  -1.253  11.959  0.0000  0.0000  0.0000
 1818MPD1   CA612331   0.952  -1.128  11.917  0.0000  0.0000  0.0000
 1818MPD1  HA1012332   0.930  -1.043  11.980  0.0000  0.0000  0.0000
 1818MPD1   HA712333   1.094  -1.223  11.623  0.0000  0.0000  0.0000
 1818MPD1   HA812334   0.899  -1.452  11.933  0.0000  0.0000  0.0000
 1818MPD1   HA912335   0.853  -1.268  12.054  0.0000  0.0000  0.0000
 1818MPD1  HN1112336   1.144  -0.953  11.830  0.0000  0.0000  0.0000
 1818MPD1  HN1212337   1.064  -1.492  11.607  0.0000  0.0000  0.0000
 1818MPD1  HN1312338   0.998  -1.577  11.738  0.0000  0.0000  0.0000
 1818MPD1  NB1412339   1.076  -0.988  11.763  0.0000  0.0000  0.0000
 1818MPD1  NH1512340   1.023  -1.487  11.699  0.0000  0.0000  0.0000
 1819MPD2  CA1612341   0.905   2.655  11.166  0.0000  0.0000  0.0000
 1819MPD2  CA1712342   0.780   2.722  11.152  0.0000  0.0000  0.0000
 1819MPD2  CA1812343   0.734   2.826  11.230  0.0000  0.0000  0.0000
 1819MPD2  CA1912344   0.828   2.878  11.324  0.0000  0.0000  0.0000
 1819MPD2  CA2012345   0.947   2.812  11.344  0.0000  0.0000  0.0000
 1819MPD2  CA2112346   0.987   2.693  11.278  0.0000  0.0000  0.0000
 1819MPD2  HA2212347   0.709   2.684  11.079  0.0000  0.0000  0.0000
 1819MPD2  HA2312348   0.816   2.968  11.384  0.0000  0.0000  0.0000
 1819MPD2  HA2412349   1.014   2.849  11.422  0.0000  0.0000  0.0000
 1819MPD2  HA2512350   1.086   2.652  11.296  0.0000  0.0000  0.0000
 1819MPD2  HN2612351   0.936   2.458  11.126  0.0000  0.0000  0.0000
 1819MPD2  HN2712352   0.611   2.987  11.236  0.0000  0.0000  0.0000
 1819MPD2  NB2812353   0.932   2.549  11.082  0.0000  0.0000  0.0000
 1819MPD2  NB2912354   0.612   2.890  11.206  0.0000  0.0000  0.0000
 1820MPD1   CA112355   0.427   0.137  10.644  0.0000  0.0000  0.0000
 1820MPD1   CA212356   0.447   0.247  10.725  0.0000  0.0000  0.0000
 1820MPD1   CA312357   0.348   0.342  10.737  0.0000  0.0000  0.0000
 1820MPD1   CA412358   0.226   0.330  10.669  0.0000  0.0000  0.0000
 1820MPD1   CA512359   0.202   0.222  10.585  0.0000  0.0000  0.0000
 1820MPD1   CA612360   0.303   0.131  10.570  0.0000  0.0000  0.0000
 1820MPD1  HA1012361   0.273   0.047  10.507  0.0000  0.0000  0.0000
 1820MPD1   HA712362   0.538   0.259  10.783  0.0000  0.0000  0.0000
 1820MPD1   HA812363   0.157   0.413  10.677  0.0000  0.0000  0.0000
 1820MPD1   HA912364   0.113   0.209  10.524  0.0000  0.0000  0.0000
 1820MPD1  HN1112365   0.627   0.095  10.624  0.0000  0.0000  0.0000
 1820MPD1  HN1212366   0.301   0.535  10.790  0.0000  0.0000  0.0000
 1820MPD1  HN1312367   0.456   0.481  10.847  0.0000  0.0000  0.0000
 1820MPD1  NB1412368   0.537   0.048  10.626  0.0000  0.0000  0.0000
 1820MPD1  NH1512369   0.374   0.465  10.790  0.0000  0.0000  0.0000
 1821MPD2  CA1612370  -0.675   1.564  11.535  0.0000  0.0000  0.0000
 1821MPD2  CA1712371  -0.562   1.483  11.534  0.0000  0.0000  0.0000
 1821MPD2  CA1812372  -0.555   1.358  11.465  0.0000  0.0000  0.0000
 1821MPD2  CA1912373  -0.672   1.321  11.404  0.0000  0.0000  0.0000
 1821MPD2  CA2012374  -0.773   1.420  11.383  0.0000  0.0000  0.0000
 1821MPD2  CA2112375  -0.785   1.532  11.456  0.0000  0.0000  0.0000
 1821MPD2  HA2212376  -0.481   1.515  11.599  0.0000  0.0000  0.0000
 1821MPD2  HA2312377  -0.675   1.226  11.353  0.0000  0.0000  0.0000
 1821MPD2  HA2412378  -0.859   1.400  11.319  0.0000  0.0000  0.0000
 1821MPD2  HA2512379  -0.875   1.594  11.457  0.0000  0.0000  0.0000
 1821MPD2  HN2612380  -0.624   1.659  11.709  0.0000  0.0000  0.0000
 1821MPD2  HN2712381  -0.383   1.300  11.549  0.0000  0.0000  0.0000
 1821MPD2  NB2812382  -0.672   1.681  11.623  0.0000  0.0000  0.0000
 1821MPD2  NB2912383  -0.436   1.284  11.464  0.0000  0.0000  0.0000
 1822MPD1   CA112384   0.263   3.324  10.879  0.0000  0.0000  0.0000
 1822MPD1   CA212385   0.239   3.414  10.986  0.0000  0.0000  0.0000
 1822MPD1   CA312386   0.117   3.476  11.003  0.0000  0.0000  0.0000
 1822MPD1   CA412387   0.013   3.451  10.912  0.0000  0.0000  0.0000
 1822MPD1   CA512388   0.038   3.378  10.800  0.0000  0.0000  0.0000
 1822MPD1   CA612389   0.159   3.301  10.787  0.0000  0.0000  0.0000
 1822MPD1  HA1012390   0.170   3.234  10.703  0.0000  0.0000  0.0000
 1822MPD1   HA712391   0.315   3.444  11.058  0.0000  0.0000  0.0000
 1822MPD1   HA812392  -0.082   3.501  10.931  0.0000  0.0000  0.0000
 1822MPD1   HA912393  -0.041   3.364  10.726  0.0000  0.0000  0.0000
 1822MPD1  HN1112394   0.387   3.171  10.796  0.0000  0.0000  0.0000
 1822MPD1  HN1212395   0.171   3.559  11.186  0.0000  0.0000  0.0000
 1822MPD1  HN1312396   0.010   3.551  11.162  0.0000  0.0000  0.0000
 1822MPD1  NB1412397   0.387   3.249  10.862  0.0000  0.0000  0.0000
 1822MPD1  NH1512398   0.099   3.560  11.115  0.0000  0.0000  0.0000
 1823MPD1   CA112399   3.157   2.086  10.385  0.0000  0.0000  0.0000
 1823MPD1   CA212400   3.108   2.219  10.359  0.0000  0.0000  0.0000
 1823MPD1   CA312401   3.024   2.295  10.449  0.0000  0.0000  0.0000
 1823MPD1   CA412402   3.010   2.233  10.577  0.0000  0.0000  0.0000
 1823MPD1   CA512403   3.070   2.116  10.609  0.0000  0.0000  0.0000
 1823MPD1   CA612404   3.143   2.041  10.515  0.0000  0.0000  0.0000
 1823MPD1  HA1012405   3.189   1.950  10.551  0.0000  0.0000  0.0000
 1823MPD1   HA712406   3.123   2.259  10.259  0.0000  0.0000  0.0000
 1823MPD1   HA812407   2.958   2.287  10.656  0.0000  0.0000  0.0000
 1823MPD1   HA912408   3.043   2.071  10.704  0.0000  0.0000  0.0000
 1823MPD1  HN1112409   3.328   2.067  10.271  0.0000  0.0000  0.0000
 1823MPD1  HN1212410   3.025   2.470  10.347  0.0000  0.0000  0.0000
 1823MPD1  HN1312411   2.934   2.471  10.493  0.0000  0.0000  0.0000
 1823MPD1  NB1412412   3.244   2.018  10.298  0.0000  0.0000  0.0000
 1823MPD1  NH1512413   2.981   2.417  10.421  0.0000  0.0000  0.0000
 1824MPD2  CA1612414   0.879   1.695  11.136  0.0000  0.0000  0.0000
 1824MPD2  CA1712415   0.893   1.806  11.043  0.0000  0.0000  0.0000
 1824MPD2  CA1812416   0.950   1.927  11.094  0.0000  0.0000  0.0000
 1824MPD2  CA1912417   0.981   1.941  11.233  0.0000  0.0000  0.0000
 1824MPD2  CA2012418   0.966   1.829  11.315  0.0000  0.0000  0.0000
 1824MPD2  CA2112419   0.913   1.707  11.272  0.0000  0.0000  0.0000
 1824MPD2  HA2212420   0.858   1.796  10.941  0.0000  0.0000  0.0000
 1824MPD2  HA2312421   1.011   2.037  11.272  0.0000  0.0000  0.0000
 1824MPD2  HA2412422   0.980   1.841  11.422  0.0000  0.0000  0.0000
 1824MPD2  HA2512423   0.900   1.623  11.340  0.0000  0.0000  0.0000
 1824MPD2  HN2612424   0.870   1.530  11.010  0.0000  0.0000  0.0000
 1824MPD2  HN2712425   0.913   2.126  11.069  0.0000  0.0000  0.0000
 1824MPD2  NB2812426   0.818   1.576  11.084  0.0000  0.0000  0.0000
 1824MPD2  NB2912427   0.944   2.046  11.016  0.0000  0.0000  0.0000
 1825MPD1   CA112428   2.962   1.781  11.010  0.0000  0.0000  0.0000
 1825MPD1   CA212429   2.838   1.770  11.075  0.0000  0.0000  0.0000
 1825MPD1   CA312430   2.721   1.821  11.015  0.0000  0.0000  0.0000
 1825MPD1   CA412431   2.718   1.864  10.882  0.0000  0.0000  0.0000
 1825MPD1   CA512432   2.839   1.871  10.818  0.0000  0.0000  0.0000
 1825MPD1   CA612433   2.960   1.833  10.878  0.0000  0.0000  0.0000
 1825MPD1  HA1012434   3.048   1.825  10.815  0.0000  0.0000  0.0000
 1825MPD1   HA712435   2.833   1.738  11.178  0.0000  0.0000  0.0000
 1825MPD1   HA812436   2.624   1.889  10.833  0.0000  0.0000  0.0000
 1825MPD1   HA912437   2.845   1.896  10.713  0.0000  0.0000  0.0000
 1825MPD1  HN1112438   3.126   1.649  11.043  0.0000  0.0000  0.0000
 1825MPD1  HN1212439   2.585   1.763  11.162  0.0000  0.0000  0.0000
 1825MPD1  HN1312440   2.524   1.878  11.048  0.0000  0.0000  0.0000
 1825MPD1  NB1412441   3.083   1.734  11.076  0.0000  0.0000  0.0000
 1825MPD1  NH1512442   2.603   1.833  11.092  0.0000  0.0000  0.0000
 1826MPD2  CA1612443   0.430  -1.100  11.767  0.0000  0.0000  0.0000
 1826MPD2  CA1712444   0.310  -1.030  11.728  0.0000  0.0000  0.0000
 1826MPD2  CA1812445   0.191  -1.047  11.797  0.0000  0.0000  0.0000
 1826MPD2  CA1912446   0.187  -1.131  11.913  0.0000  0.0000  0.0000
 1826MPD2  CA2012447   0.307  -1.197  11.949  0.0000  0.0000  0.0000
 1826MPD2  CA2112448   0.423  -1.184  11.876  0.0000  0.0000  0.0000
 1826MPD2  HA2212449   0.311  -0.966  11.641  0.0000  0.0000  0.0000
 1826MPD2  HA2312450   0.096  -1.133  11.973  0.0000  0.0000  0.0000
 1826MPD2  HA2412451   0.307  -1.265  12.034  0.0000  0.0000  0.0000
 1826MPD2  HA2512452   0.513  -1.225  11.920  0.0000  0.0000  0.0000
 1826MPD2  HN2612453   0.635  -1.075  11.756  0.0000  0.0000  0.0000
 1826MPD2  HN2712454   0.010  -1.047  11.708  0.0000  0.0000  0.0000
 1826MPD2  NB2812455   0.553  -1.087  11.698  0.0000  0.0000  0.0000
 1826MPD2  NB2912456   0.072  -0.985  11.759  0.0000  0.0000  0.0000
 1827MPD2  CA1612457   0.324   0.888  11.526  0.0000  0.0000  0.0000
 1827MPD2  CA1712458   0.370   0.988  11.616  0.0000  0.0000  0.0000
 1827MPD2  CA1812459   0.502   1.039  11.613  0.0000  0.0000  0.0000
 1827MPD2  CA1912460   0.591   0.987  11.518  0.0000  0.0000  0.0000
 1827MPD2  CA2012461   0.538   0.901  11.419  0.0000  0.0000  0.0000
 1827MPD2  CA2112462   0.412   0.848  11.429  0.0000  0.0000  0.0000
 1827MPD2  HA2212463   0.306   1.017  11.699  0.0000  0.0000  0.0000
 1827MPD2  HA2312464   0.697   1.012  11.513  0.0000  0.0000  0.0000
 1827MPD2  HA2412465   0.603   0.863  11.341  0.0000  0.0000  0.0000
 1827MPD2  HA2512466   0.383   0.773  11.356  0.0000  0.0000  0.0000
 1827MPD2  HN2612467   0.180   0.786  11.641  0.0000  0.0000  0.0000
 1827MPD2  HN2712468   0.617   1.208  11.683  0.0000  0.0000  0.0000
 1827MPD2  NB2812469   0.202   0.814  11.546  0.0000  0.0000  0.0000
 1827MPD2  NB2912470   0.560   1.129  11.712  0.0000  0.0000  0.0000
 1828MPD2  CA1612471   2.641   2.249  11.124  0.0000  0.0000  0.0000
 1828MPD2  CA1712472   2.769   2.200  11.150  0.0000  0.0000  0.0000
 1828MPD2  CA1812473   2.869   2.178  11.056  0.0000  0.0000  0.0000
 1828MPD2  CA1912474   2.835   2.201  10.917  0.0000  0.0000  0.0000
 1828MPD2  CA2012475   2.718   2.262  10.887  0.0000  0.0000  0.0000
 1828MPD2  CA2112476   2.620   2.287  10.987  0.0000  0.0000  0.0000
 1828MPD2  HA2212477   2.792   2.187  11.255  0.0000  0.0000  0.0000
 1828MPD2  HA2312478   2.901   2.165  10.838  0.0000  0.0000  0.0000
 1828MPD2  HA2412479   2.702   2.297  10.786  0.0000  0.0000  0.0000
 1828MPD2  HA2512480   2.533   2.344  10.956  0.0000  0.0000  0.0000
 1828MPD2  HN2612481   2.603   2.282  11.322  0.0000  0.0000  0.0000
 1828MPD2  HN2712482   3.003   2.044  11.158  0.0000  0.0000  0.0000
 1828MPD2  NB2812483   2.556   2.275  11.232  0.0000  0.0000  0.0000
 1828MPD2  NB2912484   2.995   2.121  11.093  0.0000  0.0000  0.0000
 1829MPD2  CA1612485   0.682  -0.884  12.430  0.0000  0.0000  0.0000
 1829MPD2  CA1712486   0.611  -0.852  12.312  0.0000  0.0000  0.0000
 1829MPD2  CA1812487   0.541  -0.732  12.306  0.0000  0.0000  0.0000
 1829MPD2  CA1912488   0.537  -0.637  12.413  0.0000  0.0000  0.0000
 1829MPD2  CA2012489   0.619  -0.662  12.524  0.0000  0.0000  0.0000
 1829MPD2  CA2112490   0.681  -0.787  12.536  0.0000  0.0000  0.0000
 1829MPD2  HA2212491   0.598  -0.932  12.239  0.0000  0.0000  0.0000
 1829MPD2  HA2312492   0.481  -0.546  12.393  0.0000  0.0000  0.0000
 1829MPD2  HA2412493   0.615  -0.597  12.611  0.0000  0.0000  0.0000
 1829MPD2  HA2512494   0.729  -0.816  12.629  0.0000  0.0000  0.0000
 1829MPD2  HN2612495   0.771  -1.031  12.540  0.0000  0.0000  0.0000
 1829MPD2  HN2712496   0.521  -0.639  12.123  0.0000  0.0000  0.0000
 1829MPD2  NB2812497   0.761  -1.002  12.443  0.0000  0.0000  0.0000
 1829MPD2  NB2912498   0.472  -0.703  12.184  0.0000  0.0000  0.0000
 1830MPD1   CA112499   2.237   2.656   9.860  0.0000  0.0000  0.0000
 1830MPD1   CA212500   2.377   2.613   9.869  0.0000  0.0000  0.0000
 1830MPD1   CA312501   2.485   2.680   9.810  0.0000  0.0000  0.0000
 1830MPD1   CA412502   2.456   2.798   9.746  0.0000  0.0000  0.0000
 1830MPD1   CA512503   2.324   2.844   9.742  0.0000  0.0000  0.0000
 1830MPD1   CA612504   2.209   2.777   9.798  0.0000  0.0000  0.0000
 1830MPD1  HA1012505   2.112   2.823   9.786  0.0000  0.0000  0.0000
 1830MPD1   HA712506   2.389   2.514   9.912  0.0000  0.0000  0.0000
 1830MPD1   HA812507   2.538   2.856   9.704  0.0000  0.0000  0.0000
 1830MPD1   HA912508   2.309   2.939   9.692  0.0000  0.0000  0.0000
 1830MPD1  HN1112509   2.170   2.517   9.996  0.0000  0.0000  0.0000
 1830MPD1  HN1212510   2.639   2.543   9.864  0.0000  0.0000  0.0000
 1830MPD1  HN1312511   2.699   2.695   9.800  0.0000  0.0000  0.0000
 1830MPD1  NB1412512   2.137   2.576   9.920  0.0000  0.0000  0.0000
 1830MPD1  NH1512513   2.622   2.631   9.817  0.0000  0.0000  0.0000
 1831MPD2  CA1612514   0.649   2.360  10.637  0.0000  0.0000  0.0000
 1831MPD2  CA1712515   0.628   2.480  10.702  0.0000  0.0000  0.0000
 1831MPD2  CA1812516   0.716   2.588  10.690  0.0000  0.0000  0.0000
 1831MPD2  CA1912517   0.819   2.571  10.598  0.0000  0.0000  0.0000
 1831MPD2  CA2012518   0.844   2.455  10.530  0.0000  0.0000  0.0000
 1831MPD2  CA2112519   0.757   2.353  10.553  0.0000  0.0000  0.0000
 1831MPD2  HA2212520   0.540   2.479  10.767  0.0000  0.0000  0.0000
 1831MPD2  HA2312521   0.893   2.650  10.589  0.0000  0.0000  0.0000
 1831MPD2  HA2412522   0.916   2.438  10.451  0.0000  0.0000  0.0000
 1831MPD2  HA2512523   0.769   2.260  10.498  0.0000  0.0000  0.0000
 1831MPD2  HN2612524   0.468   2.287  10.638  0.0000  0.0000  0.0000
 1831MPD2  HN2712525   0.790   2.715  10.830  0.0000  0.0000  0.0000
 1831MPD2  NB2812526   0.563   2.251  10.647  0.0000  0.0000  0.0000
 1831MPD2  NB2912527   0.710   2.697  10.770  0.0000  0.0000  0.0000
 1832MPD2  CA1612528  -0.131  -0.540  10.142  0.0000  0.0000  0.0000
 1832MPD2  CA1712529  -0.050  -0.605  10.239  0.0000  0.0000  0.0000
 1832MPD2  CA1812530  -0.054  -0.571  10.380  0.0000  0.0000  0.0000
 1832MPD2  CA1912531  -0.126  -0.456  10.407  0.0000  0.0000  0.0000
 1832MPD2  CA2012532  -0.193  -0.385  10.306  0.0000  0.0000  0.0000
 1832MPD2  CA2112533  -0.196  -0.423  10.176  0.0000  0.0000  0.0000
 1832MPD2  HA2212534   0.007  -0.694  10.213  0.0000  0.0000  0.0000
 1832MPD2  HA2312535  -0.126  -0.413  10.506  0.0000  0.0000  0.0000
 1832MPD2  HA2412536  -0.243  -0.291  10.326  0.0000  0.0000  0.0000
 1832MPD2  HA2512537  -0.248  -0.363  10.102  0.0000  0.0000  0.0000
 1832MPD2  HN2612538  -0.176  -0.668   9.983  0.0000  0.0000  0.0000
 1832MPD2  HN2712539   0.011  -0.599  10.569  0.0000  0.0000  0.0000
 1832MPD2  NB2812540  -0.127  -0.580   9.999  0.0000  0.0000  0.0000
 1832MPD2  NB2912541  -0.006  -0.652  10.484  0.0000  0.0000  0.0000
 1833MPD2  CA1612542  -0.716   0.924  10.098  0.0000  0.0000  0.0000
 1833MPD2  CA1712543  -0.733   1.064  10.093  0.0000  0.0000  0.0000
 1833MPD2  CA1812544  -0.637   1.152  10.044  0.0000  0.0000  0.0000
 1833MPD2  CA1912545  -0.523   1.092   9.996  0.0000  0.0000  0.0000
 1833MPD2  CA2012546  -0.497   0.958  10.010  0.0000  0.0000  0.0000
 1833MPD2  CA2112547  -0.596   0.868  10.055  0.0000  0.0000  0.0000
 1833MPD2  HA2212548  -0.827   1.110  10.123  0.0000  0.0000  0.0000
 1833MPD2  HA2312549  -0.454   1.166   9.955  0.0000  0.0000  0.0000
 1833MPD2  HA2412550  -0.401   0.911   9.993  0.0000  0.0000  0.0000
 1833MPD2  HA2512551  -0.574   0.763  10.074  0.0000  0.0000  0.0000
 1833MPD2  HN2612552  -0.889   0.828  10.037  0.0000  0.0000  0.0000
 1833MPD2  HN2712553  -0.673   1.333   9.965  0.0000  0.0000  0.0000
 1833MPD2  NB2812554  -0.828   0.838  10.117  0.0000  0.0000  0.0000
 1833MPD2  NB2912555  -0.649   1.291  10.054  0.0000  0.0000  0.0000
 1834MPD1   CA112556   0.451   0.538  12.044  0.0000  0.0000  0.0000
 1834MPD1   CA212557   0.397   0.491  12.159  0.0000  0.0000  0.0000
 1834MPD1   CA312558   0.410   0.551  12.289  0.0000  0.0000  0.0000
 1834MPD1   CA412559   0.474   0.674  12.295  0.0000  0.0000  0.0000
 1834MPD1   CA512560   0.521   0.734  12.178  0.0000  0.0000  0.0000
 1834MPD1   CA612561   0.510   0.668  12.053  0.0000  0.0000  0.0000
 1834MPD1  HA1012562   0.532   0.727  11.963  0.0000  0.0000  0.0000
 1834MPD1   HA712563   0.351   0.392  12.154  0.0000  0.0000  0.0000
 1834MPD1   HA812564   0.497   0.726  12.388  0.0000  0.0000  0.0000
 1834MPD1   HA912565   0.565   0.833  12.185  0.0000  0.0000  0.0000
 1834MPD1  HN1112566   0.464   0.371  11.917  0.0000  0.0000  0.0000
 1834MPD1  HN1212567   0.332   0.573  12.469  0.0000  0.0000  0.0000
 1834MPD1  HN1312568   0.284   0.430  12.389  0.0000  0.0000  0.0000
 1834MPD1  NB1412569   0.438   0.469  11.921  0.0000  0.0000  0.0000
 1834MPD1  NH1512570   0.358   0.497  12.407  0.0000  0.0000  0.0000
 1835MPD2  CA1612571   3.634   1.673  11.725  0.0000  0.0000  0.0000
 1835MPD2  CA1712572   3.719   1.564  11.746  0.0000  0.0000  0.0000
 1835MPD2  CA1812573   3.790   1.544  11.864  0.0000  0.0000  0.0000
 1835MPD2  CA1912574   3.796   1.652  11.957  0.0000  0.0000  0.0000
 1835MPD2  CA2012575   3.717   1.772  11.935  0.0000  0.0000  0.0000
 1835MPD2  CA2112576   3.642   1.785  11.815  0.0000  0.0000  0.0000
 1835MPD2  HA2212577   3.712   1.484  11.672  0.0000  0.0000  0.0000
 1835MPD2  HA2312578   3.868   1.646  12.038  0.0000  0.0000  0.0000
 1835MPD2  HA2412579   3.724   1.856  12.004  0.0000  0.0000  0.0000
 1835MPD2  HA2512580   3.582   1.874  11.797  0.0000  0.0000  0.0000
 1835MPD2  HN2612581   3.499   1.570  11.606  0.0000  0.0000  0.0000
 1835MPD2  HN2712582   3.937   1.436  11.959  0.0000  0.0000  0.0000
 1835MPD2  NB2812583   3.542   1.662  11.612  0.0000  0.0000  0.0000
 1835MPD2  NB2912584   3.866   1.427  11.888  0.0000  0.0000  0.0000
 1836MPD2  CA1612585   1.179   2.238  10.308  0.0000  0.0000  0.0000
 1836MPD2  CA1712586   1.315   2.257  10.291  0.0000  0.0000  0.0000
 1836MPD2  CA1812587   1.382   2.245  10.165  0.0000  0.0000  0.0000
 1836MPD2  CA1912588   1.308   2.190  10.066  0.0000  0.0000  0.0000
 1836MPD2  CA2012589   1.174   2.166  10.079  0.0000  0.0000  0.0000
 1836MPD2  CA2112590   1.109   2.187  10.199  0.0000  0.0000  0.0000
 1836MPD2  HA2212591   1.371   2.299  10.373  0.0000  0.0000  0.0000
 1836MPD2  HA2312592   1.359   2.166   9.973  0.0000  0.0000  0.0000
 1836MPD2  HA2412593   1.117   2.137   9.991  0.0000  0.0000  0.0000
 1836MPD2  HA2512594   1.001   2.188  10.204  0.0000  0.0000  0.0000
 1836MPD2  HN2612595   1.049   2.194  10.454  0.0000  0.0000  0.0000
 1836MPD2  HN2712596   1.576   2.263  10.245  0.0000  0.0000  0.0000
 1836MPD2  NB2812597   1.119   2.264  10.433  0.0000  0.0000  0.0000
 1836MPD2  NB2912598   1.526   2.277  10.158  0.0000  0.0000  0.0000
 1837MPD1   CA112599   0.489   1.540  10.391  0.0000  0.0000  0.0000
 1837MPD1   CA212600   0.585   1.539  10.287  0.0000  0.0000  0.0000
 1837MPD1   CA312601   0.634   1.417  10.235  0.0000  0.0000  0.0000
 1837MPD1   CA412602   0.587   1.299  10.287  0.0000  0.0000  0.0000
 1837MPD1   CA512603   0.494   1.305  10.390  0.0000  0.0000  0.0000
 1837MPD1   CA612604   0.440   1.422  10.440  0.0000  0.0000  0.0000
 1837MPD1  HA1012605   0.372   1.421  10.524  0.0000  0.0000  0.0000
 1837MPD1   HA712606   0.623   1.627  10.236  0.0000  0.0000  0.0000
 1837MPD1   HA812607   0.623   1.203  10.253  0.0000  0.0000  0.0000
 1837MPD1   HA912608   0.464   1.206  10.424  0.0000  0.0000  0.0000
 1837MPD1  HN1112609   0.517   1.733  10.430  0.0000  0.0000  0.0000
 1837MPD1  HN1212610   0.773   1.329  10.107  0.0000  0.0000  0.0000
 1837MPD1  HN1312611   0.715   1.481  10.049  0.0000  0.0000  0.0000
 1837MPD1  NB1412612   0.449   1.660  10.450  0.0000  0.0000  0.0000
 1837MPD1  NH1512613   0.720   1.413  10.124  0.0000  0.0000  0.0000
 1838MPD2  CA1612614  -0.383   2.061  10.663  0.0000  0.0000  0.0000
 1838MPD2  CA1712615  -0.322   2.186  10.686  0.0000  0.0000  0.0000
 1838MPD2  CA1812616  -0.399   2.302  10.697  0.0000  0.0000  0.0000
 1838MPD2  CA1912617  -0.540   2.293  10.674  0.0000  0.0000  0.0000
 1838MPD2  CA2012618  -0.596   2.168  10.650  0.0000  0.0000  0.0000
 1838MPD2  CA2112619  -0.520   2.049  10.642  0.0000  0.0000  0.0000
 1838MPD2  HA2212620  -0.214   2.191  10.697  0.0000  0.0000  0.0000
 1838MPD2  HA2312621  -0.600   2.382  10.688  0.0000  0.0000  0.0000
 1838MPD2  HA2412622  -0.704   2.161  10.642  0.0000  0.0000  0.0000
 1838MPD2  HA2512623  -0.563   1.949  10.638  0.0000  0.0000  0.0000
 1838MPD2  HN2612624  -0.365   1.864  10.669  0.0000  0.0000  0.0000
 1838MPD2  HN2712625  -0.254   2.442  10.643  0.0000  0.0000  0.0000
 1838MPD2  NB2812626  -0.306   1.944  10.646  0.0000  0.0000  0.0000
 1838MPD2  NB2912627  -0.321   2.418  10.715  0.0000  0.0000  0.0000
 1839MPD2  CA1612628   1.766  -0.724  10.891  0.0000  0.0000  0.0000
 1839MPD2  CA1712629   1.811  -0.599  10.943  0.0000  0.0000  0.0000
 1839MPD2  CA1812630   1.737  -0.520  11.037  0.0000  0.0000  0.0000
 1839MPD2  CA1912631   1.607  -0.560  11.075  0.0000  0.0000  0.0000
 1839MPD2  CA2012632   1.560  -0.682  11.023  0.0000  0.0000  0.0000
 1839MPD2  CA2112633   1.632  -0.752  10.927  0.0000  0.0000  0.0000
 1839MPD2  HA2212634   1.911  -0.568  10.914  0.0000  0.0000  0.0000
 1839MPD2  HA2312635   1.534  -0.500  11.128  0.0000  0.0000  0.0000
 1839MPD2  HA2412636   1.462  -0.709  11.063  0.0000  0.0000  0.0000
 1839MPD2  HA2512637   1.576  -0.834  10.883  0.0000  0.0000  0.0000
 1839MPD2  HN2612638   1.806  -0.789  10.694  0.0000  0.0000  0.0000
 1839MPD2  HN2712639   1.828  -0.363  10.980  0.0000  0.0000  0.0000
 1839MPD2  NB2812640   1.836  -0.796  10.791  0.0000  0.0000  0.0000
 1839MPD2  NB2912641   1.781  -0.392  11.065  0.0000  0.0000  0.0000
 1840MPD2  CA1612642   3.372   1.477  10.444  0.0000  0.0000  0.0000
 1840MPD2  CA1712643   3.432   1.491  10.321  0.0000  0.0000  0.0000
 1840MPD2  CA1812644   3.394   1.411  10.209  0.0000  0.0000  0.0000
 1840MPD2  CA1912645   3.283   1.331  10.216  0.0000  0.0000  0.0000
 1840MPD2  CA2012646   3.210   1.327  10.336  0.0000  0.0000  0.0000
 1840MPD2  CA2112647   3.249   1.407  10.443  0.0000  0.0000  0.0000
 1840MPD2  HA2212648   3.524   1.548  10.308  0.0000  0.0000  0.0000
 1840MPD2  HA2312649   3.246   1.272  10.133  0.0000  0.0000  0.0000
 1840MPD2  HA2412650   3.122   1.263  10.344  0.0000  0.0000  0.0000
 1840MPD2  HA2512651   3.193   1.402  10.535  0.0000  0.0000  0.0000
 1840MPD2  HN2612652   3.413   1.653  10.548  0.0000  0.0000  0.0000
 1840MPD2  HN2712653   3.482   1.333  10.035  0.0000  0.0000  0.0000
 1840MPD2  NB2812654   3.407   1.553  10.563  0.0000  0.0000  0.0000
 1840MPD2  NB2912655   3.459   1.419  10.084  0.0000  0.0000  0.0000
 1841MPD2  CA1612656  -0.132   2.246  11.137  0.0000  0.0000  0.0000
 1841MPD2  CA1712657  -0.075   2.224  11.008  0.0000  0.0000  0.0000
 1841MPD2  CA1812658   0.056   2.186  10.997  0.0000  0.0000  0.0000
 1841MPD2  CA1912659   0.132   2.164  11.110  0.0000  0.0000  0.0000
 1841MPD2  CA2012660   0.079   2.188  11.238  0.0000  0.0000  0.0000
 1841MPD2  CA2112661  -0.050   2.234  11.255  0.0000  0.0000  0.0000
 1841MPD2  HA2212662  -0.134   2.247  10.920  0.0000  0.0000  0.0000
 1841MPD2  HA2312663   0.231   2.121  11.099  0.0000  0.0000  0.0000
 1841MPD2  HA2412664   0.142   2.169  11.325  0.0000  0.0000  0.0000
 1841MPD2  HA2512665  -0.089   2.250  11.355  0.0000  0.0000  0.0000
 1841MPD2  HN2612666  -0.279   2.383  11.177  0.0000  0.0000  0.0000
 1841MPD2  HN2712667   0.191   2.207  10.839  0.0000  0.0000  0.0000
 1841MPD2  NB2812668  -0.268   2.285  11.152  0.0000  0.0000  0.0000
 1841MPD2  NB2912669   0.117   2.150  10.878  0.0000  0.0000  0.0000
 1842MPD1   CA112670   2.808  -0.197  10.592  0.0000  0.0000  0.0000
 1842MPD1   CA212671   2.865  -0.119  10.488  0.0000  0.0000  0.0000
 1842MPD1   CA312672   2.874   0.023  10.501  0.0000  0.0000  0.0000
 1842MPD1   CA412673   2.821   0.088  10.617  0.0000  0.0000  0.0000
 1842MPD1   CA512674   2.764   0.009  10.720  0.0000  0.0000  0.0000
 1842MPD1   CA612675   2.757  -0.130  10.702  0.0000  0.0000  0.0000
 1842MPD1  HA1012676   2.694  -0.179  10.775  0.0000  0.0000  0.0000
 1842MPD1   HA712677   2.896  -0.168  10.396  0.0000  0.0000  0.0000
 1842MPD1   HA812678   2.808   0.196  10.620  0.0000  0.0000  0.0000
 1842MPD1   HA912679   2.711   0.055  10.803  0.0000  0.0000  0.0000
 1842MPD1  HN1112680   2.884  -0.387  10.614  0.0000  0.0000  0.0000
 1842MPD1  HN1212681   3.012   0.057  10.376  0.0000  0.0000  0.0000
 1842MPD1  HN1312682   2.905   0.192  10.400  0.0000  0.0000  0.0000
 1842MPD1  NB1412683   2.802  -0.340  10.578  0.0000  0.0000  0.0000
 1842MPD1  NH1512684   2.919   0.092  10.390  0.0000  0.0000  0.0000
 1843MPD2  CA1612685   2.309   2.152  10.635  0.0000  0.0000  0.0000
 1843MPD2  CA1712686   2.222   2.169  10.529  0.0000  0.0000  0.0000
 1843MPD2  CA1812687   2.225   2.288  10.457  0.0000  0.0000  0.0000
 1843MPD2  CA1912688   2.307   2.394  10.497  0.0000  0.0000  0.0000
 1843MPD2  CA2012689   2.386   2.383  10.607  0.0000  0.0000  0.0000
 1843MPD2  CA2112690   2.395   2.256  10.672  0.0000  0.0000  0.0000
 1843MPD2  HA2212691   2.160   2.088  10.492  0.0000  0.0000  0.0000
 1843MPD2  HA2312692   2.300   2.492  10.449  0.0000  0.0000  0.0000
 1843MPD2  HA2412693   2.457   2.462  10.628  0.0000  0.0000  0.0000
 1843MPD2  HA2512694   2.470   2.236  10.747  0.0000  0.0000  0.0000
 1843MPD2  HN2612695   2.322   1.942  10.632  0.0000  0.0000  0.0000
 1843MPD2  HN2712696   2.173   2.371  10.278  0.0000  0.0000  0.0000
 1843MPD2  NB2812697   2.315   2.021  10.695  0.0000  0.0000  0.0000
 1843MPD2  NB2912698   2.135   2.310  10.349  0.0000  0.0000  0.0000
 1844MPD1   CA112699   0.428  -0.746  10.209  0.0000  0.0000  0.0000
 1844MPD1   CA212700   0.563  -0.743  10.210  0.0000  0.0000  0.0000
 1844MPD1   CA312701   0.627  -0.843  10.285  0.0000  0.0000  0.0000
 1844MPD1   CA412702   0.552  -0.935  10.359  0.0000  0.0000  0.0000
 1844MPD1   CA512703   0.417  -0.952  10.339  0.0000  0.0000  0.0000
 1844MPD1   CA612704   0.354  -0.846  10.271  0.0000  0.0000  0.0000
 1844MPD1  HA1012705   0.245  -0.850  10.267  0.0000  0.0000  0.0000
 1844MPD1   HA712706   0.620  -0.662  10.166  0.0000  0.0000  0.0000
 1844MPD1   HA812707   0.604  -1.015  10.412  0.0000  0.0000  0.0000
 1844MPD1   HA912708   0.363  -1.035  10.383  0.0000  0.0000  0.0000
 1844MPD1  HN1112709   0.255  -0.687  10.118  0.0000  0.0000  0.0000
 1844MPD1  HN1212710   0.818  -0.752  10.282  0.0000  0.0000  0.0000
 1844MPD1  HN1312711   0.809  -0.901  10.365  0.0000  0.0000  0.0000
 1844MPD1  NB1412712   0.346  -0.650  10.144  0.0000  0.0000  0.0000
 1844MPD1  NH1512713   0.764  -0.835  10.303  0.0000  0.0000  0.0000
 1845MPD2  CA1612714   3.078  -0.353  10.770  0.0000  0.0000  0.0000
 1845MPD2  CA1712715   3.124  -0.467  10.700  0.0000  0.0000  0.0000
 1845MPD2  CA1812716   3.083  -0.602  10.722  0.0000  0.0000  0.0000
 1845MPD2  CA1912717   2.976  -0.618  10.815  0.0000  0.0000  0.0000
 1845MPD2  CA2012718   2.919  -0.505  10.878  0.0000  0.0000  0.0000
 1845MPD2  CA2112719   2.974  -0.376  10.867  0.0000  0.0000  0.0000
 1845MPD2  HA2212720   3.194  -0.460  10.616  0.0000  0.0000  0.0000
 1845MPD2  HA2312721   2.932  -0.715  10.836  0.0000  0.0000  0.0000
 1845MPD2  HA2412722   2.829  -0.513  10.938  0.0000  0.0000  0.0000
 1845MPD2  HA2512723   2.903  -0.302  10.904  0.0000  0.0000  0.0000
 1845MPD2  HN2612724   3.059  -0.146  10.759  0.0000  0.0000  0.0000
 1845MPD2  HN2712725   3.214  -0.725  10.665  0.0000  0.0000  0.0000
 1845MPD2  NB2812726   3.121  -0.223  10.736  0.0000  0.0000  0.0000
 1845MPD2  NB2912727   3.122  -0.699  10.633  0.0000  0.0000  0.0000
 1846MPD2  CA1612728   1.395   2.580  11.338  0.0000  0.0000  0.0000
 1846MPD2  CA1712729   1.518   2.550  11.271  0.0000  0.0000  0.0000
 1846MPD2  CA1812730   1.612   2.648  11.231  0.0000  0.0000  0.0000
 1846MPD2  CA1912731   1.582   2.781  11.273  0.0000  0.0000  0.0000
 1846MPD2  CA2012732   1.469   2.810  11.352  0.0000  0.0000  0.0000
 1846MPD2  CA2112733   1.375   2.712  11.376  0.0000  0.0000  0.0000
 1846MPD2  HA2212734   1.532   2.443  11.254  0.0000  0.0000  0.0000
 1846MPD2  HA2312735   1.640   2.869  11.249  0.0000  0.0000  0.0000
 1846MPD2  HA2412736   1.447   2.911  11.384  0.0000  0.0000  0.0000
 1846MPD2  HA2512737   1.292   2.747  11.437  0.0000  0.0000  0.0000
 1846MPD2  HN2612738   1.282   2.407  11.289  0.0000  0.0000  0.0000
 1846MPD2  HN2712739   1.714   2.544  11.075  0.0000  0.0000  0.0000
 1846MPD2  NB2812740   1.306   2.471  11.362  0.0000  0.0000  0.0000
 1846MPD2  NB2912741   1.725   2.609  11.152  0.0000  0.0000  0.0000
 1847MPD2  CA1612742   0.688   1.821  11.991  0.0000  0.0000  0.0000
 1847MPD2  CA1712743   0.779   1.876  11.900  0.0000  0.0000  0.0000
 1847MPD2  CA1812744   0.791   2.018  11.881  0.0000  0.0000  0.0000
 1847MPD2  CA1912745   0.714   2.099  11.964  0.0000  0.0000  0.0000
 1847MPD2  CA2012746   0.630   2.042  12.062  0.0000  0.0000  0.0000
 1847MPD2  CA2112747   0.616   1.909  12.076  0.0000  0.0000  0.0000
 1847MPD2  HA2212748   0.836   1.804  11.843  0.0000  0.0000  0.0000
 1847MPD2  HA2312749   0.722   2.206  11.953  0.0000  0.0000  0.0000
 1847MPD2  HA2412750   0.587   2.107  12.139  0.0000  0.0000  0.0000
 1847MPD2  HA2512751   0.562   1.862  12.157  0.0000  0.0000  0.0000
 1847MPD2  HN2612752   0.624   1.657  12.109  0.0000  0.0000  0.0000
 1847MPD2  HN2712753   0.963   1.995  11.789  0.0000  0.0000  0.0000
 1847MPD2  NB2812754   0.661   1.680  12.018  0.0000  0.0000  0.0000
 1847MPD2  NB2912755   0.890   2.065  11.788  0.0000  0.0000  0.0000
 1848MPD1   CA112756   0.700  -0.686  11.736  0.0000  0.0000  0.0000
 1848MPD1   CA212757   0.820  -0.666  11.808  0.0000  0.0000  0.0000
 1848MPD1   CA312758   0.844  -0.734  11.926  0.0000  0.0000  0.0000
 1848MPD1   CA412759   0.737  -0.816  11.986  0.0000  0.0000  0.0000
 1848MPD1   CA512760   0.622  -0.828  11.912  0.0000  0.0000  0.0000
 1848MPD1   CA612761   0.606  -0.769  11.789  0.0000  0.0000  0.0000
 1848MPD1  HA1012762   0.511  -0.780  11.737  0.0000  0.0000  0.0000
 1848MPD1   HA712763   0.895  -0.596  11.772  0.0000  0.0000  0.0000
 1848MPD1   HA812764   0.743  -0.853  12.087  0.0000  0.0000  0.0000
 1848MPD1   HA912765   0.541  -0.883  11.959  0.0000  0.0000  0.0000
 1848MPD1  HN1112766   0.738  -0.526  11.618  0.0000  0.0000  0.0000
 1848MPD1  HN1212767   1.028  -0.652  11.976  0.0000  0.0000  0.0000
 1848MPD1  HN1312768   0.964  -0.766  12.094  0.0000  0.0000  0.0000
 1848MPD1  NB1412769   0.688  -0.614  11.619  0.0000  0.0000  0.0000
 1848MPD1  NH1512770   0.959  -0.720  12.004  0.0000  0.0000  0.0000
 1849MPD2  CA1612771   0.033   1.712  11.166  0.0000  0.0000  0.0000
 1849MPD2  CA1712772   0.146   1.701  11.081  0.0000  0.0000  0.0000
 1849MPD2  CA1812773   0.249   1.606  11.116  0.0000  0.0000  0.0000
 1849MPD2  CA1912774   0.233   1.540  11.241  0.0000  0.0000  0.0000
 1849MPD2  CA2012775   0.122   1.551  11.324  0.0000  0.0000  0.0000
 1849MPD2  CA2112776   0.021   1.633  11.282  0.0000  0.0000  0.0000
 1849MPD2  HA2212777   0.145   1.756  10.987  0.0000  0.0000  0.0000
 1849MPD2  HA2312778   0.307   1.462  11.261  0.0000  0.0000  0.0000
 1849MPD2  HA2412779   0.105   1.494  11.415  0.0000  0.0000  0.0000
 1849MPD2  HA2512780  -0.075   1.631  11.332  0.0000  0.0000  0.0000
 1849MPD2  HN2612781  -0.109   1.871  11.183  0.0000  0.0000  0.0000
 1849MPD2  HN2712782   0.369   1.466  11.036  0.0000  0.0000  0.0000
 1849MPD2  NB2812783  -0.079   1.793  11.126  0.0000  0.0000  0.0000
 1849MPD2  NB2912784   0.350   1.565  11.027  0.0000  0.0000  0.0000
 1850MPD2  CA1612785   0.173   0.366   9.871  0.0000  0.0000  0.0000
 1850MPD2  CA1712786   0.170   0.231   9.917  0.0000  0.0000  0.0000
 1850MPD2  CA1812787   0.119   0.125   9.829  0.0000  0.0000  0.0000
 1850MPD2  CA1912788   0.061   0.161   9.708  0.0000  0.0000  0.0000
 1850MPD2  CA2012789   0.063   0.291   9.668  0.0000  0.0000  0.0000
 1850MPD2  CA2112790   0.114   0.396   9.748  0.0000  0.0000  0.0000
 1850MPD2  HA2212791   0.214   0.201  10.011  0.0000  0.0000  0.0000
 1850MPD2  HA2312792   0.020   0.084   9.643  0.0000  0.0000  0.0000
 1850MPD2  HA2412793   0.014   0.312   9.573  0.0000  0.0000  0.0000
 1850MPD2  HA2512794   0.124   0.496   9.707  0.0000  0.0000  0.0000
 1850MPD2  HN2612795   0.185   0.557   9.951  0.0000  0.0000  0.0000
 1850MPD2  HN2712796   0.018  -0.045   9.847  0.0000  0.0000  0.0000
 1850MPD2  NB2812797   0.237   0.470   9.950  0.0000  0.0000  0.0000
 1850MPD2  NB2912798   0.108  -0.005   9.871  0.0000  0.0000  0.0000
 1851MPD2  CA1612799   1.450   0.038  10.362  0.0000  0.0000  0.0000
 1851MPD2  CA1712800   1.316   0.006  10.389  0.0000  0.0000  0.0000
 1851MPD2  CA1812801   1.280  -0.113  10.459  0.0000  0.0000  0.0000
 1851MPD2  CA1912802   1.372  -0.205  10.493  0.0000  0.0000  0.0000
 1851MPD2  CA2012803   1.509  -0.170  10.472  0.0000  0.0000  0.0000
 1851MPD2  CA2112804   1.550  -0.053  10.407  0.0000  0.0000  0.0000
 1851MPD2  HA2212805   1.235   0.076  10.369  0.0000  0.0000  0.0000
 1851MPD2  HA2312806   1.344  -0.305  10.526  0.0000  0.0000  0.0000
 1851MPD2  HA2412807   1.585  -0.236  10.512  0.0000  0.0000  0.0000
 1851MPD2  HA2512808   1.658  -0.039  10.398  0.0000  0.0000  0.0000
 1851MPD2  HN2612809   1.535   0.157  10.218  0.0000  0.0000  0.0000
 1851MPD2  HN2712810   1.129  -0.247  10.514  0.0000  0.0000  0.0000
 1851MPD2  NB2812811   1.490   0.160  10.309  0.0000  0.0000  0.0000
 1851MPD2  NB2912812   1.144  -0.150  10.490  0.0000  0.0000  0.0000
 1852MPD2  CA1612813   1.797   0.006  10.038  0.0000  0.0000  0.0000
 1852MPD2  CA1712814   1.856   0.137  10.044  0.0000  0.0000  0.0000
 1852MPD2  CA1812815   1.794   0.250  10.001  0.0000  0.0000  0.0000
 1852MPD2  CA1912816   1.669   0.232   9.935  0.0000  0.0000  0.0000
 1852MPD2  CA2012817   1.608   0.107   9.941  0.0000  0.0000  0.0000
 1852MPD2  CA2112818   1.667  -0.004   9.998  0.0000  0.0000  0.0000
 1852MPD2  HA2212819   1.963   0.142  10.060  0.0000  0.0000  0.0000
 1852MPD2  HA2312820   1.625   0.308   9.870  0.0000  0.0000  0.0000
 1852MPD2  HA2412821   1.520   0.102   9.877  0.0000  0.0000  0.0000
 1852MPD2  HA2512822   1.620  -0.102   9.997  0.0000  0.0000  0.0000
 1852MPD2  HN2612823   1.788  -0.186  10.104  0.0000  0.0000  0.0000
 1852MPD2  HN2712824   1.936   0.393   9.984  0.0000  0.0000  0.0000
 1852MPD2  NB2812825   1.854  -0.111  10.088  0.0000  0.0000  0.0000
 1852MPD2  NB2912826   1.844   0.379  10.022  0.0000  0.0000  0.0000
 1853MPD2  CA1612827  -0.064   1.253  12.138  0.0000  0.0000  0.0000
 1853MPD2  CA1712828  -0.051   1.254  11.999  0.0000  0.0000  0.0000
 1853MPD2  CA1812829  -0.085   1.140  11.920  0.0000  0.0000  0.0000
 1853MPD2  CA1912830  -0.124   1.023  11.987  0.0000  0.0000  0.0000
 1853MPD2  CA2012831  -0.136   1.021  12.128  0.0000  0.0000  0.0000
 1853MPD2  CA2112832  -0.095   1.136  12.199  0.0000  0.0000  0.0000
 1853MPD2  HA2212833  -0.016   1.343  11.946  0.0000  0.0000  0.0000
 1853MPD2  HA2312834  -0.148   0.933  11.930  0.0000  0.0000  0.0000
 1853MPD2  HA2412835  -0.164   0.928  12.175  0.0000  0.0000  0.0000
 1853MPD2  HA2512836  -0.090   1.126  12.307  0.0000  0.0000  0.0000
 1853MPD2  HN2612837   0.041   1.329  12.291  0.0000  0.0000  0.0000
 1853MPD2  HN2712838  -0.183   1.103  11.758  0.0000  0.0000  0.0000
 1853MPD2  NB2812839  -0.021   1.360  12.216  0.0000  0.0000  0.0000
 1853MPD2  NB2912840  -0.094   1.143  11.785  0.0000  0.0000  0.0000
 1854MPD2  CA1612841   3.785   1.652  10.471  0.0000  0.0000  0.0000
 1854MPD2  CA1712842   3.797   1.734  10.353  0.0000  0.0000  0.0000
 1854MPD2  CA1812843   3.794   1.871  10.360  0.0000  0.0000  0.0000
 1854MPD2  CA1912844   3.795   1.941  10.482  0.0000  0.0000  0.0000
 1854MPD2  CA2012845   3.778   1.859  10.594  0.0000  0.0000  0.0000
 1854MPD2  CA2112846   3.767   1.718  10.589  0.0000  0.0000  0.0000
 1854MPD2  HA2212847   3.803   1.682  10.258  0.0000  0.0000  0.0000
 1854MPD2  HA2312848   3.810   2.048  10.493  0.0000  0.0000  0.0000
 1854MPD2  HA2412849   3.776   1.905  10.693  0.0000  0.0000  0.0000
 1854MPD2  HA2512850   3.755   1.660  10.680  0.0000  0.0000  0.0000
 1854MPD2  HN2612851   3.767   1.479  10.569  0.0000  0.0000  0.0000
 1854MPD2  HN2712852   3.877   2.022  10.236  0.0000  0.0000  0.0000
 1854MPD2  NB2812853   3.760   1.513  10.473  0.0000  0.0000  0.0000
 1854MPD2  NB2912854   3.801   1.956  10.243  0.0000  0.0000  0.0000
 1855MPD2  CA1612855   1.618   1.904  10.958  0.0000  0.0000  0.0000
 1855MPD2  CA1712856   1.726   1.984  10.932  0.0000  0.0000  0.0000
 1855MPD2  CA1812857   1.763   2.093  11.012  0.0000  0.0000  0.0000
 1855MPD2  CA1912858   1.683   2.137  11.111  0.0000  0.0000  0.0000
 1855MPD2  CA2012859   1.568   2.062  11.142  0.0000  0.0000  0.0000
 1855MPD2  CA2112860   1.541   1.949  11.067  0.0000  0.0000  0.0000
 1855MPD2  HA2212861   1.803   1.956  10.861  0.0000  0.0000  0.0000
 1855MPD2  HA2312862   1.709   2.225  11.169  0.0000  0.0000  0.0000
 1855MPD2  HA2412863   1.513   2.098  11.228  0.0000  0.0000  0.0000
 1855MPD2  HA2512864   1.453   1.892  11.098  0.0000  0.0000  0.0000
 1855MPD2  HN2612865   1.527   1.745  10.846  0.0000  0.0000  0.0000
 1855MPD2  HN2712866   1.944   2.057  10.969  0.0000  0.0000  0.0000
 1855MPD2  NB2812867   1.610   1.773  10.897  0.0000  0.0000  0.0000
 1855MPD2  NB2912868   1.890   2.138  10.997  0.0000  0.0000  0.0000
 1856MPD2  CA1612869   3.641   1.126  10.944  0.0000  0.0000  0.0000
 1856MPD2  CA1712870   3.572   1.216  11.030  0.0000  0.0000  0.0000
 1856MPD2  CA1812871   3.584   1.200  11.166  0.0000  0.0000  0.0000
 1856MPD2  CA1912872   3.667   1.109  11.217  0.0000  0.0000  0.0000
 1856MPD2  CA2012873   3.737   1.020  11.136  0.0000  0.0000  0.0000
 1856MPD2  CA2112874   3.724   1.022  10.996  0.0000  0.0000  0.0000
 1856MPD2  HA2212875   3.503   1.286  10.984  0.0000  0.0000  0.0000
 1856MPD2  HA2312876   3.682   1.101  11.324  0.0000  0.0000  0.0000
 1856MPD2  HA2412877   3.796   0.944  11.188  0.0000  0.0000  0.0000
 1856MPD2  HA2512878   3.780   0.958  10.929  0.0000  0.0000  0.0000
 1856MPD2  HN2612879   3.572   1.229  10.771  0.0000  0.0000  0.0000
 1856MPD2  HN2712880   3.580   1.336  11.321  0.0000  0.0000  0.0000
 1856MPD2  NB2812881   3.622   1.147  10.801  0.0000  0.0000  0.0000
 1856MPD2  NB2912882   3.520   1.290  11.253  0.0000  0.0000  0.0000
 1857MPD2  CA1612883   1.154   0.844  10.230  0.0000  0.0000  0.0000
 1857MPD2  CA1712884   1.023   0.805  10.208  0.0000  0.0000  0.0000
 1857MPD2  CA1812885   0.917   0.896  10.202  0.0000  0.0000  0.0000
 1857MPD2  CA1912886   0.947   1.032  10.211  0.0000  0.0000  0.0000
 1857MPD2  CA2012887   1.076   1.075  10.240  0.0000  0.0000  0.0000
 1857MPD2  CA2112888   1.178   0.979  10.256  0.0000  0.0000  0.0000
 1857MPD2  HA2212889   1.006   0.699  10.190  0.0000  0.0000  0.0000
 1857MPD2  HA2312890   0.873   1.110  10.197  0.0000  0.0000  0.0000
 1857MPD2  HA2412891   1.106   1.179  10.244  0.0000  0.0000  0.0000
 1857MPD2  HA2512892   1.280   1.009  10.278  0.0000  0.0000  0.0000
 1857MPD2  HN2612893   1.228   0.650  10.235  0.0000  0.0000  0.0000
 1857MPD2  HN2712894   0.727   0.926  10.132  0.0000  0.0000  0.0000
 1857MPD2  NB2812895   1.258   0.746  10.226  0.0000  0.0000  0.0000
 1857MPD2  NB2912896   0.790   0.855  10.165  0.0000  0.0000  0.0000
 1858MPD2  CA1612897   3.067   0.828  10.186  0.0000  0.0000  0.0000
 1858MPD2  CA1712898   3.179   0.878  10.243  0.0000  0.0000  0.0000
 1858MPD2  CA1812899   3.305   0.849  10.201  0.0000  0.0000  0.0000
 1858MPD2  CA1912900   3.325   0.768  10.086  0.0000  0.0000  0.0000
 1858MPD2  CA2012901   3.207   0.734  10.017  0.0000  0.0000  0.0000
 1858MPD2  CA2112902   3.081   0.753  10.069  0.0000  0.0000  0.0000
 1858MPD2  HA2212903   3.171   0.941  10.332  0.0000  0.0000  0.0000
 1858MPD2  HA2312904   3.425   0.748  10.048  0.0000  0.0000  0.0000
 1858MPD2  HA2412905   3.215   0.674   9.928  0.0000  0.0000  0.0000
 1858MPD2  HA2512906   2.992   0.712  10.022  0.0000  0.0000  0.0000
 1858MPD2  HN2612907   2.864   0.830  10.153  0.0000  0.0000  0.0000
 1858MPD2  HN2712908   3.405   0.934  10.372  0.0000  0.0000  0.0000
 1858MPD2  NB2812909   2.929   0.870  10.220  0.0000  0.0000  0.0000
 1858MPD2  NB2912910   3.416   0.915  10.273  0.0000  0.0000  0.0000
 1859MPD2  CA1612911   2.132  -0.949  10.180  0.0000  0.0000  0.0000
 1859MPD2  CA1712912   2.241  -0.876  10.244  0.0000  0.0000  0.0000
 1859MPD2  CA1812913   2.374  -0.902  10.207  0.0000  0.0000  0.0000
 1859MPD2  CA1912914   2.398  -0.975  10.090  0.0000  0.0000  0.0000
 1859MPD2  CA2012915   2.297  -1.024  10.018  0.0000  0.0000  0.0000
 1859MPD2  CA2112916   2.167  -1.016  10.062  0.0000  0.0000  0.0000
 1859MPD2  HA2212917   2.227  -0.819  10.334  0.0000  0.0000  0.0000
 1859MPD2  HA2312918   2.502  -0.978  10.058  0.0000  0.0000  0.0000
 1859MPD2  HA2412919   2.316  -1.074   9.923  0.0000  0.0000  0.0000
 1859MPD2  HA2512920   2.096  -1.070  10.000  0.0000  0.0000  0.0000
 1859MPD2  HN2612921   1.930  -0.970  10.137  0.0000  0.0000  0.0000
 1859MPD2  HN2712922   2.457  -0.727  10.290  0.0000  0.0000  0.0000
 1859MPD2  NB2812923   1.993  -0.952  10.214  0.0000  0.0000  0.0000
 1859MPD2  NB2912924   2.475  -0.827  10.280  0.0000  0.0000  0.0000
 1860MPD1   CA112925   0.739  -0.016  11.380  0.0000  0.0000  0.0000
 1860MPD1   CA212926   0.734   0.039  11.513  0.0000  0.0000  0.0000
 1860MPD1   CA312927   0.770   0.171  11.542  0.0000  0.0000  0.0000
 1860MPD1   CA412928   0.809   0.255  11.438  0.0000  0.0000  0.0000
 1860MPD1   CA512929   0.819   0.204  11.308  0.0000  0.0000  0.0000
 1860MPD1   CA612930   0.782   0.072  11.276  0.0000  0.0000  0.0000
 1860MPD1  HA1012931   0.799   0.041  11.173  0.0000  0.0000  0.0000
 1860MPD1   HA712932   0.721  -0.034  11.592  0.0000  0.0000  0.0000
 1860MPD1   HA812933   0.823   0.362  11.447  0.0000  0.0000  0.0000
 1860MPD1   HA912934   0.860   0.278  11.239  0.0000  0.0000  0.0000
 1860MPD1  HN1112935   0.644  -0.193  11.429  0.0000  0.0000  0.0000
 1860MPD1  HN1212936   0.735   0.156  11.746  0.0000  0.0000  0.0000
 1860MPD1  HN1312937   0.776   0.315  11.695  0.0000  0.0000  0.0000
 1860MPD1  NB1412938   0.705  -0.151  11.360  0.0000  0.0000  0.0000
 1860MPD1  NH1512939   0.774   0.216  11.675  0.0000  0.0000  0.0000
 1861MPD2  CA1612940   2.135   2.153  11.548  0.0000  0.0000  0.0000
 1861MPD2  CA1712941   2.117   2.091  11.423  0.0000  0.0000  0.0000
 1861MPD2  CA1812942   2.000   2.018  11.400  0.0000  0.0000  0.0000
 1861MPD2  CA1912943   1.893   2.031  11.487  0.0000  0.0000  0.0000
 1861MPD2  CA2012944   1.909   2.111  11.602  0.0000  0.0000  0.0000
 1861MPD2  CA2112945   2.027   2.175  11.633  0.0000  0.0000  0.0000
 1861MPD2  HA2212946   2.195   2.102  11.348  0.0000  0.0000  0.0000
 1861MPD2  HA2312947   1.805   1.969  11.473  0.0000  0.0000  0.0000
 1861MPD2  HA2412948   1.821   2.114  11.666  0.0000  0.0000  0.0000
 1861MPD2  HA2512949   2.028   2.220  11.731  0.0000  0.0000  0.0000
 1861MPD2  HN2612950   2.308   2.255  11.513  0.0000  0.0000  0.0000
 1861MPD2  HN2712951   1.885   1.924  11.253  0.0000  0.0000  0.0000
 1861MPD2  NB2812952   2.263   2.202  11.587  0.0000  0.0000  0.0000
 1861MPD2  NB2912953   1.979   1.929  11.290  0.0000  0.0000  0.0000
 1862MPD2  CA1612954   0.307   1.217  10.094  0.0000  0.0000  0.0000
 1862MPD2  CA1712955   0.217   1.278  10.182  0.0000  0.0000  0.0000
 1862MPD2  CA1812956   0.175   1.414  10.170  0.0000  0.0000  0.0000
 1862MPD2  CA1912957   0.208   1.477  10.056  0.0000  0.0000  0.0000
 1862MPD2  CA2012958   0.307   1.421   9.969  0.0000  0.0000  0.0000
 1862MPD2  CA2112959   0.358   1.295   9.991  0.0000  0.0000  0.0000
 1862MPD2  HA2212960   0.195   1.228  10.276  0.0000  0.0000  0.0000
 1862MPD2  HA2312961   0.162   1.573  10.033  0.0000  0.0000  0.0000
 1862MPD2  HA2412962   0.345   1.484   9.889  0.0000  0.0000  0.0000
 1862MPD2  HA2512963   0.440   1.256   9.931  0.0000  0.0000  0.0000
 1862MPD2  HN2612964   0.452   1.074  10.115  0.0000  0.0000  0.0000
 1862MPD2  HN2712965   0.028   1.421  10.315  0.0000  0.0000  0.0000
 1862MPD2  NB2812966   0.351   1.085  10.116  0.0000  0.0000  0.0000
 1862MPD2  NB2912967   0.094   1.481  10.266  0.0000  0.0000  0.0000
 1863MPD2  CA1612968   0.306  -0.360  11.491  0.0000  0.0000  0.0000
 1863MPD2  CA1712969   0.338  -0.225  11.526  0.0000  0.0000  0.0000
 1863MPD2  CA1812970   0.369  -0.126  11.430  0.0000  0.0000  0.0000
 1863MPD2  CA1912971   0.365  -0.164  11.300  0.0000  0.0000  0.0000
 1863MPD2  CA2012972   0.350  -0.295  11.256  0.0000  0.0000  0.0000
 1863MPD2  CA2112973   0.313  -0.391  11.351  0.0000  0.0000  0.0000
 1863MPD2  HA2212974   0.348  -0.202  11.632  0.0000  0.0000  0.0000
 1863MPD2  HA2312975   0.398  -0.092  11.226  0.0000  0.0000  0.0000
 1863MPD2  HA2412976   0.353  -0.319  11.150  0.0000  0.0000  0.0000
 1863MPD2  HA2512977   0.296  -0.492  11.314  0.0000  0.0000  0.0000
 1863MPD2  HN2612978   0.211  -0.522  11.581  0.0000  0.0000  0.0000
 1863MPD2  HN2712979   0.412   0.068  11.372  0.0000  0.0000  0.0000
 1863MPD2  NB2812980   0.290  -0.459  11.592  0.0000  0.0000  0.0000
 1863MPD2  NB2912981   0.392   0.015  11.457  0.0000  0.0000  0.0000
 1864MPD2  CA1612982   0.287  -0.429  10.618  0.0000  0.0000  0.0000
 1864MPD2  CA1712983   0.330  -0.440  10.755  0.0000  0.0000  0.0000
 1864MPD2  CA1812984   0.424  -0.539  10.796  0.0000  0.0000  0.0000
 1864MPD2  CA1912985   0.462  -0.644  10.714  0.0000  0.0000  0.0000
 1864MPD2  CA2012986   0.413  -0.642  10.583  0.0000  0.0000  0.0000
 1864MPD2  CA2112987   0.332  -0.540  10.534  0.0000  0.0000  0.0000
 1864MPD2  HA2212988   0.294  -0.365  10.824  0.0000  0.0000  0.0000
 1864MPD2  HA2312989   0.531  -0.724  10.741  0.0000  0.0000  0.0000
 1864MPD2  HA2412990   0.434  -0.724  10.513  0.0000  0.0000  0.0000
 1864MPD2  HA2512991   0.300  -0.551  10.431  0.0000  0.0000  0.0000
 1864MPD2  HN2612992   0.131  -0.305  10.645  0.0000  0.0000  0.0000
 1864MPD2  HN2712993   0.510  -0.425  10.942  0.0000  0.0000  0.0000
 1864MPD2  NB2812994   0.196  -0.336  10.574  0.0000  0.0000  0.0000
 1864MPD2  NB2912995   0.485  -0.521  10.920  0.0000  0.0000  0.0000
 1865MPD2  CA1612996   2.419  -0.666  10.731  0.0000  0.0000  0.0000
 1865MPD2  CA1712997   2.396  -0.787  10.668  0.0000  0.0000  0.0000
 1865MPD2  CA1812998   2.455  -0.909  10.722  0.0000  0.0000  0.0000
 1865MPD2  CA1912999   2.534  -0.900  10.837  0.0000  0.0000  0.0000
 1865MPD2  CA2013000   2.555  -0.779  10.896  0.0000  0.0000  0.0000
 1865MPD2  CA2113001   2.512  -0.663  10.839  0.0000  0.0000  0.0000
 1865MPD2  HA2213002   2.334  -0.778  10.579  0.0000  0.0000  0.0000
 1865MPD2  HA2313003   2.583  -0.984  10.886  0.0000  0.0000  0.0000
 1865MPD2  HA2413004   2.611  -0.770  10.989  0.0000  0.0000  0.0000
 1865MPD2  HA2513005   2.556  -0.573  10.880  0.0000  0.0000  0.0000
 1865MPD2  HN2613006   2.430  -0.471  10.663  0.0000  0.0000  0.0000
 1865MPD2  HN2713007   2.518  -1.106  10.685  0.0000  0.0000  0.0000
 1865MPD2  NB2813008   2.365  -0.548  10.671  0.0000  0.0000  0.0000
 1865MPD2  NB2913009   2.442  -1.042  10.663  0.0000  0.0000  0.0000
 1866MPD2  CA1613010   1.213   1.494  11.399  0.0000  0.0000  0.0000
 1866MPD2  CA1713011   1.251   1.633  11.411  0.0000  0.0000  0.0000
 1866MPD2  CA1813012   1.210   1.709  11.518  0.0000  0.0000  0.0000
 1866MPD2  CA1913013   1.137   1.650  11.620  0.0000  0.0000  0.0000
 1866MPD2  CA2013014   1.101   1.514  11.618  0.0000  0.0000  0.0000
 1866MPD2  CA2113015   1.136   1.438  11.502  0.0000  0.0000  0.0000
 1866MPD2  HA2213016   1.317   1.683  11.340  0.0000  0.0000  0.0000
 1866MPD2  HA2313017   1.108   1.713  11.703  0.0000  0.0000  0.0000
 1866MPD2  HA2413018   1.057   1.463  11.704  0.0000  0.0000  0.0000
 1866MPD2  HA2513019   1.102   1.335  11.497  0.0000  0.0000  0.0000
 1866MPD2  HN2613020   1.353   1.419  11.257  0.0000  0.0000  0.0000
 1866MPD2  HN2713021   1.216   1.869  11.629  0.0000  0.0000  0.0000
 1866MPD2  NB2813022   1.258   1.411  11.293  0.0000  0.0000  0.0000
 1866MPD2  NB2913023   1.233   1.849  11.531  0.0000  0.0000  0.0000
 1867MPD2  CA1613024   1.184   1.465  10.321  0.0000  0.0000  0.0000
 1867MPD2  CA1713025   1.089   1.467  10.427  0.0000  0.0000  0.0000
 1867MPD2  CA1813026   0.978   1.552  10.426  0.0000  0.0000  0.0000
 1867MPD2  CA1913027   0.961   1.635  10.317  0.0000  0.0000  0.0000
 1867MPD2  CA2013028   1.055   1.642  10.212  0.0000  0.0000  0.0000
 1867MPD2  CA2113029   1.162   1.558  10.215  0.0000  0.0000  0.0000
 1867MPD2  HA2213030   1.094   1.398  10.511  0.0000  0.0000  0.0000
 1867MPD2  HA2313031   0.877   1.704  10.312  0.0000  0.0000  0.0000
 1867MPD2  HA2413032   1.039   1.709  10.128  0.0000  0.0000  0.0000
 1867MPD2  HA2513033   1.237   1.566  10.138  0.0000  0.0000  0.0000
 1867MPD2  HN2613034   1.271   1.292  10.384  0.0000  0.0000  0.0000
 1867MPD2  HN2713035   0.879   1.417  10.537  0.0000  0.0000  0.0000
 1867MPD2  NB2813036   1.296   1.371  10.326  0.0000  0.0000  0.0000
 1867MPD2  NB2913037   0.881   1.516  10.517  0.0000  0.0000  0.0000
 1868MPD2  CA1613038  -0.555   1.176  10.772  0.0000  0.0000  0.0000
 1868MPD2  CA1713039  -0.462   1.265  10.721  0.0000  0.0000  0.0000
 1868MPD2  CA1813040  -0.408   1.370  10.798  0.0000  0.0000  0.0000
 1868MPD2  CA1913041  -0.457   1.382  10.928  0.0000  0.0000  0.0000
 1868MPD2  CA2013042  -0.547   1.287  10.981  0.0000  0.0000  0.0000
 1868MPD2  CA2113043  -0.602   1.189  10.903  0.0000  0.0000  0.0000
 1868MPD2  HA2213044  -0.438   1.251  10.616  0.0000  0.0000  0.0000
 1868MPD2  HA2313045  -0.416   1.465  10.984  0.0000  0.0000  0.0000
 1868MPD2  HA2413046  -0.584   1.302  11.082  0.0000  0.0000  0.0000
 1868MPD2  HA2513047  -0.665   1.112  10.948  0.0000  0.0000  0.0000
 1868MPD2  HN2613048  -0.598   0.973  10.750  0.0000  0.0000  0.0000
 1868MPD2  HN2713049  -0.367   1.551  10.717  0.0000  0.0000  0.0000
 1868MPD2  NB2813050  -0.593   1.062  10.702  0.0000  0.0000  0.0000
 1868MPD2  NB2913051  -0.319   1.464  10.738  0.0000  0.0000  0.0000
 1869MPD2  CA1613052   2.418   1.527  10.786  0.0000  0.0000  0.0000
 1869MPD2  CA1713053   2.414   1.416  10.703  0.0000  0.0000  0.0000
 1869MPD2  CA1813054   2.528   1.360  10.648  0.0000  0.0000  0.0000
 1869MPD2  CA1913055   2.648   1.432  10.664  0.0000  0.0000  0.0000
 1869MPD2  CA2013056   2.653   1.559  10.735  0.0000  0.0000  0.0000
 1869MPD2  CA2113057   2.537   1.603  10.799  0.0000  0.0000  0.0000
 1869MPD2  HA2213058   2.320   1.363  10.692  0.0000  0.0000  0.0000
 1869MPD2  HA2313059   2.738   1.400  10.612  0.0000  0.0000  0.0000
 1869MPD2  HA2413060   2.742   1.622  10.740  0.0000  0.0000  0.0000
 1869MPD2  HA2513061   2.544   1.688  10.865  0.0000  0.0000  0.0000
 1869MPD2  HN2613062   2.321   1.640  10.930  0.0000  0.0000  0.0000
 1869MPD2  HN2713063   2.645   1.218  10.562  0.0000  0.0000  0.0000
 1869MPD2  NB2813064   2.302   1.579  10.852  0.0000  0.0000  0.0000
 1869MPD2  NB2913065   2.547   1.238  10.577  0.0000  0.0000  0.0000
 1870MPD1   CA113066   0.878  -0.517  10.935  0.0000  0.0000  0.0000
 1870MPD1   CA213067   0.834  -0.577  10.819  0.0000  0.0000  0.0000
 1870MPD1   CA313068   0.807  -0.717  10.817  0.0000  0.0000  0.0000
 1870MPD1   CA413069   0.809  -0.789  10.935  0.0000  0.0000  0.0000
 1870MPD1   CA513070   0.856  -0.729  11.052  0.0000  0.0000  0.0000
 1870MPD1   CA613071   0.891  -0.591  11.051  0.0000  0.0000  0.0000
 1870MPD1  HA1013072   0.920  -0.537  11.141  0.0000  0.0000  0.0000
 1870MPD1   HA713073   0.816  -0.523  10.727  0.0000  0.0000  0.0000
 1870MPD1   HA813074   0.768  -0.889  10.933  0.0000  0.0000  0.0000
 1870MPD1   HA913075   0.852  -0.781  11.147  0.0000  0.0000  0.0000
 1870MPD1  HN1113076   0.878  -0.314  11.001  0.0000  0.0000  0.0000
 1870MPD1  HN1213077   0.708  -0.863  10.705  0.0000  0.0000  0.0000
 1870MPD1  HN1313078   0.747  -0.722  10.620  0.0000  0.0000  0.0000
 1870MPD1  NB1413079   0.917  -0.375  10.930  0.0000  0.0000  0.0000
 1870MPD1  NH1513080   0.765  -0.780  10.701  0.0000  0.0000  0.0000
 1871MPD2  CA1613081   0.749   0.369  10.912  0.0000  0.0000  0.0000
 1871MPD2  CA1713082   0.669   0.347  11.023  0.0000  0.0000  0.0000
 1871MPD2  CA1813083   0.587   0.440  11.076  0.0000  0.0000  0.0000
 1871MPD2  CA1913084   0.578   0.566  11.020  0.0000  0.0000  0.0000
 1871MPD2  CA2013085   0.668   0.596  10.913  0.0000  0.0000  0.0000
 1871MPD2  CA2113086   0.756   0.503  10.861  0.0000  0.0000  0.0000
 1871MPD2  HA2213087   0.666   0.248  11.068  0.0000  0.0000  0.0000
 1871MPD2  HA2313088   0.512   0.642  11.061  0.0000  0.0000  0.0000
 1871MPD2  HA2413089   0.656   0.689  10.859  0.0000  0.0000  0.0000
 1871MPD2  HA2513090   0.801   0.527  10.765  0.0000  0.0000  0.0000
 1871MPD2  HN2613091   0.922   0.323  10.827  0.0000  0.0000  0.0000
 1871MPD2  HN2713092   0.473   0.329  11.208  0.0000  0.0000  0.0000
 1871MPD2  NB2813093   0.843   0.272  10.865  0.0000  0.0000  0.0000
 1871MPD2  NB2913094   0.530   0.412  11.200  0.0000  0.0000  0.0000
 1872MPD2  CA1613095   2.109   1.098  10.229  0.0000  0.0000  0.0000
 1872MPD2  CA1713096   2.156   0.967  10.200  0.0000  0.0000  0.0000
 1872MPD2  CA1813097   2.284   0.951  10.143  0.0000  0.0000  0.0000
 1872MPD2  CA1913098   2.358   1.065  10.110  0.0000  0.0000  0.0000
 1872MPD2  CA2013099   2.309   1.191  10.135  0.0000  0.0000  0.0000
 1872MPD2  CA2113100   2.186   1.210  10.194  0.0000  0.0000  0.0000
 1872MPD2  HA2213101   2.086   0.887  10.223  0.0000  0.0000  0.0000
 1872MPD2  HA2313102   2.450   1.050  10.055  0.0000  0.0000  0.0000
 1872MPD2  HA2413103   2.378   1.273  10.119  0.0000  0.0000  0.0000
 1872MPD2  HA2513104   2.157   1.310  10.225  0.0000  0.0000  0.0000
 1872MPD2  HN2613105   1.935   1.012  10.303  0.0000  0.0000  0.0000
 1872MPD2  HN2713106   2.294   0.761  10.055  0.0000  0.0000  0.0000
 1872MPD2  NB2813107   1.975   1.102  10.280  0.0000  0.0000  0.0000
 1872MPD2  NB2913108   2.340   0.823  10.121  0.0000  0.0000  0.0000
 1873MPD2  CA1613109  -0.367   0.490  10.703  0.0000  0.0000  0.0000
 1873MPD2  CA1713110  -0.328   0.370  10.643  0.0000  0.0000  0.0000
 1873MPD2  CA1813111  -0.248   0.274  10.701  0.0000  0.0000  0.0000
 1873MPD2  CA1913112  -0.171   0.309  10.811  0.0000  0.0000  0.0000
 1873MPD2  CA2013113  -0.219   0.424  10.879  0.0000  0.0000  0.0000
 1873MPD2  CA2113114  -0.312   0.505  10.827  0.0000  0.0000  0.0000
 1873MPD2  HA2213115  -0.369   0.344  10.546  0.0000  0.0000  0.0000
 1873MPD2  HA2313116  -0.085   0.256  10.851  0.0000  0.0000  0.0000
 1873MPD2  HA2413117  -0.163   0.459  10.965  0.0000  0.0000  0.0000
 1873MPD2  HA2513118  -0.340   0.593  10.884  0.0000  0.0000  0.0000
 1873MPD2  HN2613119  -0.412   0.684  10.642  0.0000  0.0000  0.0000
 1873MPD2  HN2713120  -0.265   0.154  10.536  0.0000  0.0000  0.0000
 1873MPD2  NB2813121  -0.444   0.588  10.633  0.0000  0.0000  0.0000
 1873MPD2  NB2913122  -0.226   0.155  10.630  0.0000  0.0000  0.0000
 1874MPD2  CA1613123  -0.143   0.242  10.198  0.0000  0.0000  0.0000
 1874MPD2  CA1713124  -0.035   0.317  10.240  0.0000  0.0000  0.0000
 1874MPD2  CA1813125  -0.052   0.430  10.318  0.0000  0.0000  0.0000
 1874MPD2  CA1913126  -0.183   0.478  10.339  0.0000  0.0000  0.0000
 1874MPD2  CA2013127  -0.293   0.406  10.300  0.0000  0.0000  0.0000
 1874MPD2  CA2113128  -0.271   0.288  10.224  0.0000  0.0000  0.0000
 1874MPD2  HA2213129   0.067   0.289  10.216  0.0000  0.0000  0.0000
 1874MPD2  HA2313130  -0.202   0.572  10.389  0.0000  0.0000  0.0000
 1874MPD2  HA2413131  -0.394   0.444  10.311  0.0000  0.0000  0.0000
 1874MPD2  HA2513132  -0.361   0.237  10.189  0.0000  0.0000  0.0000
 1874MPD2  HN2613133  -0.180   0.130  10.027  0.0000  0.0000  0.0000
 1874MPD2  HN2713134   0.024   0.587  10.429  0.0000  0.0000  0.0000
 1874MPD2  NB2813135  -0.139   0.123  10.119  0.0000  0.0000  0.0000
 1874MPD2  NB2913136   0.061   0.513  10.371  0.0000  0.0000  0.0000
 1875MPD2  CA1613137   0.203   1.098  10.759  0.0000  0.0000  0.0000
 1875MPD2  CA1713138   0.162   1.088  10.893  0.0000  0.0000  0.0000
 1875MPD2  CA1813139   0.115   1.197  10.966  0.0000  0.0000  0.0000
 1875MPD2  CA1913140   0.112   1.322  10.903  0.0000  0.0000  0.0000
 1875MPD2  CA2013141   0.158   1.335  10.773  0.0000  0.0000  0.0000
 1875MPD2  CA2113142   0.202   1.227  10.699  0.0000  0.0000  0.0000
 1875MPD2  HA2213143   0.164   0.991  10.941  0.0000  0.0000  0.0000
 1875MPD2  HA2313144   0.085   1.405  10.968  0.0000  0.0000  0.0000
 1875MPD2  HA2413145   0.164   1.437  10.737  0.0000  0.0000  0.0000
 1875MPD2  HA2513146   0.241   1.241  10.599  0.0000  0.0000  0.0000
 1875MPD2  HN2613147   0.302   0.913  10.749  0.0000  0.0000  0.0000
 1875MPD2  HN2713148  -0.034   1.232  11.101  0.0000  0.0000  0.0000
 1875MPD2  NB2813149   0.250   0.980  10.694  0.0000  0.0000  0.0000
 1875MPD2  NB2913150   0.056   1.187  11.091  0.0000  0.0000  0.0000
 1876MPD2  CA1613151   1.558   0.075  10.811  0.0000  0.0000  0.0000
 1876MPD2  CA1713152   1.652   0.009  10.736  0.0000  0.0000  0.0000
 1876MPD2  CA1813153   1.787   0.037  10.745  0.0000  0.0000  0.0000
 1876MPD2  CA1913154   1.835   0.135  10.834  0.0000  0.0000  0.0000
 1876MPD2  CA2013155   1.745   0.208  10.908  0.0000  0.0000  0.0000
 1876MPD2  CA2113156   1.611   0.166  10.906  0.0000  0.0000  0.0000
 1876MPD2  HA2213157   1.622  -0.076  10.675  0.0000  0.0000  0.0000
 1876MPD2  HA2313158   1.940   0.156  10.850  0.0000  0.0000  0.0000
 1876MPD2  HA2413159   1.775   0.289  10.974  0.0000  0.0000  0.0000
 1876MPD2  HA2513160   1.544   0.218  10.974  0.0000  0.0000  0.0000
 1876MPD2  HN2613161   1.429  -0.077  10.827  0.0000  0.0000  0.0000
 1876MPD2  HN2713162   1.948   0.019  10.625  0.0000  0.0000  0.0000
 1876MPD2  NB2813163   1.433   0.024  10.827  0.0000  0.0000  0.0000
 1876MPD2  NB2913164   1.878  -0.037  10.670  0.0000  0.0000  0.0000
 1877MPD2  CA1613165   2.346   0.131  10.355  0.0000  0.0000  0.0000
 1877MPD2  CA1713166   2.283   0.227  10.275  0.0000  0.0000  0.0000
 1877MPD2  CA1813167   2.347   0.351  10.237  0.0000  0.0000  0.0000
 1877MPD2  CA1913168   2.483   0.360  10.271  0.0000  0.0000  0.0000
 1877MPD2  CA2013169   2.548   0.266  10.350  0.0000  0.0000  0.0000
 1877MPD2  CA2113170   2.476   0.151  10.396  0.0000  0.0000  0.0000
 1877MPD2  HA2213171   2.182   0.202  10.243  0.0000  0.0000  0.0000
 1877MPD2  HA2313172   2.542   0.437  10.223  0.0000  0.0000  0.0000
 1877MPD2  HA2413173   2.650   0.289  10.380  0.0000  0.0000  0.0000
 1877MPD2  HA2513174   2.529   0.084  10.463  0.0000  0.0000  0.0000
 1877MPD2  HN2613175   2.180   0.029  10.429  0.0000  0.0000  0.0000
 1877MPD2  HN2713176   2.354   0.468  10.075  0.0000  0.0000  0.0000
 1877MPD2  NB2813177   2.273   0.015  10.391  0.0000  0.0000  0.0000
 1877MPD2  NB2913178   2.287   0.441  10.146  0.0000  0.0000  0.0000
 1878MPD2  CA1613179   1.079   0.847  10.661  0.0000  0.0000  0.0000
 1878MPD2  CA1713180   0.934   0.847  10.642  0.0000  0.0000  0.0000
 1878MPD2  CA1813181   0.866   0.749  10.564  0.0000  0.0000  0.0000
 1878MPD2  CA1913182   0.941   0.650  10.498  0.0000  0.0000  0.0000
 1878MPD2  CA2013183   1.080   0.654  10.513  0.0000  0.0000  0.0000
 1878MPD2  CA2113184   1.151   0.754  10.587  0.0000  0.0000  0.0000
 1878MPD2  HA2213185   0.884   0.931  10.691  0.0000  0.0000  0.0000
 1878MPD2  HA2313186   0.892   0.583  10.428  0.0000  0.0000  0.0000
 1878MPD2  HA2413187   1.137   0.575  10.464  0.0000  0.0000  0.0000
 1878MPD2  HA2513188   1.259   0.745  10.597  0.0000  0.0000  0.0000
 1878MPD2  HN2613189   1.234   0.977  10.705  0.0000  0.0000  0.0000
 1878MPD2  HN2713190   0.688   0.845  10.522  0.0000  0.0000  0.0000
 1878MPD2  NB2813191   1.147   0.946  10.748  0.0000  0.0000  0.0000
 1878MPD2  NB2913192   0.725   0.757  10.553  0.0000  0.0000  0.0000
 1879MPD2  CA1613193   1.906   0.960  10.663  0.0000  0.0000  0.0000
 1879MPD2  CA1713194   1.783   0.956  10.740  0.0000  0.0000  0.0000
 1879MPD2  CA1813195   1.737   1.077  10.795  0.0000  0.0000  0.0000
 1879MPD2  CA1913196   1.800   1.196  10.762  0.0000  0.0000  0.0000
 1879MPD2  CA2013197   1.918   1.199  10.684  0.0000  0.0000  0.0000
 1879MPD2  CA2113198   1.975   1.077  10.637  0.0000  0.0000  0.0000
 1879MPD2  HA2213199   1.729   0.865  10.761  0.0000  0.0000  0.0000
 1879MPD2  HA2313200   1.750   1.289  10.786  0.0000  0.0000  0.0000
 1879MPD2  HA2413201   1.960   1.289  10.641  0.0000  0.0000  0.0000
 1879MPD2  HA2513202   2.060   1.086  10.571  0.0000  0.0000  0.0000
 1879MPD2  HN2613203   1.886   0.760  10.618  0.0000  0.0000  0.0000
 1879MPD2  HN2713204   1.546   1.005  10.822  0.0000  0.0000  0.0000
 1879MPD2  NB2813205   1.956   0.833  10.617  0.0000  0.0000  0.0000
 1879MPD2  NB2913206   1.608   1.079  10.854  0.0000  0.0000  0.0000
 1880MPD2  CA1613207   1.599   0.711  10.589  0.0000  0.0000  0.0000
 1880MPD2  CA1713208   1.658   0.602  10.533  0.0000  0.0000  0.0000
 1880MPD2  CA1813209   1.679   0.485  10.602  0.0000  0.0000  0.0000
 1880MPD2  CA1913210   1.628   0.467  10.737  0.0000  0.0000  0.0000
 1880MPD2  CA2013211   1.559   0.577  10.795  0.0000  0.0000  0.0000
 1880MPD2  CA2113212   1.544   0.696  10.721  0.0000  0.0000  0.0000
 1880MPD2  HA2213213   1.683   0.609  10.427  0.0000  0.0000  0.0000
 1880MPD2  HA2313214   1.633   0.367  10.779  0.0000  0.0000  0.0000
 1880MPD2  HA2413215   1.512   0.571  10.893  0.0000  0.0000  0.0000
 1880MPD2  HA2513216   1.482   0.769  10.771  0.0000  0.0000  0.0000
 1880MPD2  HN2613217   1.694   0.839  10.468  0.0000  0.0000  0.0000
 1880MPD2  HN2713218   1.670   0.288  10.554  0.0000  0.0000  0.0000
 1880MPD2  NB2813219   1.610   0.836  10.525  0.0000  0.0000  0.0000
 1880MPD2  NB2913220   1.726   0.372  10.541  0.0000  0.0000  0.0000
 1881TMC3  CA3713221   1.941   0.455  10.436  0.0000  0.0000  0.0000
 1881TMC3  CA3813222   1.971   0.568  10.520  0.0000  0.0000  0.0000
 1881TMC3  CA3913223   2.061   0.665  10.488  0.0000  0.0000  0.0000
 1881TMC3  CA4013224   2.143   0.647  10.379  0.0000  0.0000  0.0000
 1881TMC3  CA4113225   2.119   0.536  10.295  0.0000  0.0000  0.0000
 1881TMC3  CA4213226   2.018   0.441  10.324  0.0000  0.0000  0.0000
 1881TMC3  CB4313227   1.839   0.349  10.463  0.0000  0.0000  0.0000
 1881TMC3  CB4413228   2.078   0.794  10.563  0.0000  0.0000  0.0000
 1881TMC3  CB4513229   2.186   0.530  10.161  0.0000  0.0000  0.0000
 1881TMC3  HA4613230   1.917   0.570  10.614  0.0000  0.0000  0.0000
 1881TMC3  HA4713231   2.212   0.728  10.357  0.0000  0.0000  0.0000
 1881TMC3  HA4813232   1.993   0.359  10.258  0.0000  0.0000  0.0000
 1881TMC3   O4913233   1.864   0.245  10.407  0.0000  0.0000  0.0000
 1881TMC3   O5013234   2.177   0.864  10.567  0.0000  0.0000  0.0000
 1881TMC3   O5113235   2.155   0.623  10.089  0.0000  0.0000  0.0000
 1882TMC3  CA3713236   1.233   1.237  11.119  0.0000  0.0000  0.0000
 1882TMC3  CA3813237   1.371   1.242  11.088  0.0000  0.0000  0.0000
 1882TMC3  CA3913238   1.415   1.158  10.983  0.0000  0.0000  0.0000
 1882TMC3  CA4013239   1.328   1.081  10.911  0.0000  0.0000  0.0000
 1882TMC3  CA4113240   1.198   1.071  10.949  0.0000  0.0000  0.0000
 1882TMC3  CA4213241   1.151   1.150  11.049  0.0000  0.0000  0.0000
 1882TMC3  CB4313242   1.172   1.335  11.217  0.0000  0.0000  0.0000
 1882TMC3  CB4413243   1.557   1.175  10.943  0.0000  0.0000  0.0000
 1882TMC3  CB4513244   1.110   0.976  10.878  0.0000  0.0000  0.0000
 1882TMC3  HA4613245   1.437   1.307  11.144  0.0000  0.0000  0.0000
 1882TMC3  HA4713246   1.366   1.021  10.829  0.0000  0.0000  0.0000
 1882TMC3  HA4813247   1.049   1.136  11.082  0.0000  0.0000  0.0000
 1882TMC3   O4913248   1.047   1.338  11.237  0.0000  0.0000  0.0000
 1882TMC3   O5013249   1.620   1.264  10.993  0.0000  0.0000  0.0000
 1882TMC3   O5113250   1.011   0.927  10.930  0.0000  0.0000  0.0000
 1883TMC3  CA3713251   2.007  -0.231  10.603  0.0000  0.0000  0.0000
 1883TMC3  CA3813252   2.059  -0.354  10.650  0.0000  0.0000  0.0000
 1883TMC3  CA3913253   2.179  -0.401  10.599  0.0000  0.0000  0.0000
 1883TMC3  CA4013254   2.253  -0.322  10.515  0.0000  0.0000  0.0000
 1883TMC3  CA4113255   2.211  -0.202  10.470  0.0000  0.0000  0.0000
 1883TMC3  CA4213256   2.085  -0.158  10.509  0.0000  0.0000  0.0000
 1883TMC3  CB4313257   1.894  -0.173  10.678  0.0000  0.0000  0.0000
 1883TMC3  CB4413258   2.225  -0.529  10.658  0.0000  0.0000  0.0000
 1883TMC3  CB4513259   2.311  -0.116  10.401  0.0000  0.0000  0.0000
 1883TMC3  HA4613260   2.002  -0.419  10.715  0.0000  0.0000  0.0000
 1883TMC3  HA4713261   2.353  -0.351  10.483  0.0000  0.0000  0.0000
 1883TMC3  HA4813262   2.044  -0.068  10.464  0.0000  0.0000  0.0000
 1883TMC3   O4913263   1.826  -0.251  10.746  0.0000  0.0000  0.0000
 1883TMC3   O5013264   2.142  -0.613  10.682  0.0000  0.0000  0.0000
 1883TMC3   O5113265   2.415  -0.166  10.355  0.0000  0.0000  0.0000
 1884TMC3  CA3713266   0.492   0.675  10.520  0.0000  0.0000  0.0000
 1884TMC3  CA3813267   0.416   0.581  10.451  0.0000  0.0000  0.0000
 1884TMC3  CA3913268   0.287   0.609  10.419  0.0000  0.0000  0.0000
 1884TMC3  CA4013269   0.219   0.722  10.461  0.0000  0.0000  0.0000
 1884TMC3  CA4113270   0.297   0.819  10.526  0.0000  0.0000  0.0000
 1884TMC3  CA4213271   0.430   0.796  10.551  0.0000  0.0000  0.0000
 1884TMC3  CB4313272   0.635   0.649  10.553  0.0000  0.0000  0.0000
 1884TMC3  CB4413273   0.202   0.501  10.360  0.0000  0.0000  0.0000
 1884TMC3  CB4513274   0.232   0.952  10.563  0.0000  0.0000  0.0000
 1884TMC3  HA4613275   0.460   0.483  10.434  0.0000  0.0000  0.0000
 1884TMC3  HA4713276   0.117   0.750  10.435  0.0000  0.0000  0.0000
 1884TMC3  HA4813277   0.491   0.871  10.601  0.0000  0.0000  0.0000
 1884TMC3   O4913278   0.666   0.532  10.569  0.0000  0.0000  0.0000
 1884TMC3   O5013279   0.262   0.413  10.301  0.0000  0.0000  0.0000
 1884TMC3   O5113280   0.175   1.021  10.480  0.0000  0.0000  0.0000
 1885TMC3  CA3713281  -0.080  -0.016  10.530  0.0000  0.0000  0.0000
 1885TMC3  CA3813282   0.006  -0.122  10.548  0.0000  0.0000  0.0000
 1885TMC3  CA3913283   0.064  -0.193  10.436  0.0000  0.0000  0.0000
 1885TMC3  CA4013284   0.010  -0.170  10.308  0.0000  0.0000  0.0000
 1885TMC3  CA4113285  -0.075  -0.055  10.290  0.0000  0.0000  0.0000
 1885TMC3  CA4213286  -0.116   0.017  10.403  0.0000  0.0000  0.0000
 1885TMC3  CB4313287  -0.138   0.053  10.651  0.0000  0.0000  0.0000
 1885TMC3  CB4413288   0.176  -0.292  10.448  0.0000  0.0000  0.0000
 1885TMC3  CB4513289  -0.109  -0.009  10.154  0.0000  0.0000  0.0000
 1885TMC3  HA4613290   0.030  -0.148  10.650  0.0000  0.0000  0.0000
 1885TMC3  HA4713291   0.043  -0.225  10.220  0.0000  0.0000  0.0000
 1885TMC3  HA4813292  -0.189   0.094  10.384  0.0000  0.0000  0.0000
 1885TMC3   O4913293  -0.096   0.018  10.761  0.0000  0.0000  0.0000
 1885TMC3   O5013294   0.240  -0.316  10.347  0.0000  0.0000  0.0000
 1885TMC3   O5113295  -0.107  -0.090  10.064  0.0000  0.0000  0.0000
 1886TMC3  CA3713296   1.032  -0.177  10.842  0.0000  0.0000  0.0000
 1886TMC3  CA3813297   0.922  -0.090  10.843  0.0000  0.0000  0.0000
 1886TMC3  CA3913298   0.940   0.047  10.839  0.0000  0.0000  0.0000
 1886TMC3  CA4013299   1.067   0.096  10.835  0.0000  0.0000  0.0000
 1886TMC3  CA4113300   1.180   0.016  10.835  0.0000  0.0000  0.0000
 1886TMC3  CA4213301   1.164  -0.122  10.840  0.0000  0.0000  0.0000
 1886TMC3  CB4313302   1.014  -0.325  10.844  0.0000  0.0000  0.0000
 1886TMC3  CB4413303   0.821   0.139  10.856  0.0000  0.0000  0.0000
 1886TMC3  CB4513304   1.315   0.091  10.819  0.0000  0.0000  0.0000
 1886TMC3  HA4613305   0.825  -0.132  10.866  0.0000  0.0000  0.0000
 1886TMC3  HA4713306   1.083   0.203  10.833  0.0000  0.0000  0.0000
 1886TMC3  HA4813307   1.246  -0.194  10.844  0.0000  0.0000  0.0000
 1886TMC3   O4913308   1.092  -0.390  10.772  0.0000  0.0000  0.0000
 1886TMC3   O5013309   0.712   0.089  10.877  0.0000  0.0000  0.0000
 1886TMC3   O5113310   1.318   0.212  10.799  0.0000  0.0000  0.0000
 1887TMC3  CA3713311   1.515   1.265  10.319  0.0000  0.0000  0.0000
 1887TMC3  CA3813312   1.478   1.170  10.409  0.0000  0.0000  0.0000
 1887TMC3  CA3913313   1.570   1.071  10.447  0.0000  0.0000  0.0000
 1887TMC3  CA4013314   1.703   1.077  10.403  0.0000  0.0000  0.0000
 1887TMC3  CA4113315   1.742   1.185  10.324  0.0000  0.0000  0.0000
 1887TMC3  CA4213316   1.649   1.276  10.279  0.0000  0.0000  0.0000
 1887TMC3  CB4313317   1.427   1.379  10.286  0.0000  0.0000  0.0000
 1887TMC3  CB4413318   1.535   0.957  10.538  0.0000  0.0000  0.0000
 1887TMC3  CB4513319   1.884   1.209  10.278  0.0000  0.0000  0.0000
 1887TMC3  HA4613320   1.375   1.161  10.443  0.0000  0.0000  0.0000
 1887TMC3  HA4713321   1.775   1.007  10.443  0.0000  0.0000  0.0000
 1887TMC3  HA4813322   1.676   1.353  10.207  0.0000  0.0000  0.0000
 1887TMC3   O4913323   1.462   1.478  10.229  0.0000  0.0000  0.0000
 1887TMC3   O5013324   1.440   0.967  10.609  0.0000  0.0000  0.0000
 1887TMC3   O5113325   1.914   1.320  10.236  0.0000  0.0000  0.0000
 1888TMC3  CA3713326   0.492   0.419  11.448  0.0000  0.0000  0.0000
 1888TMC3  CA3813327   0.473   0.284  11.452  0.0000  0.0000  0.0000
 1888TMC3  CA3913328   0.439   0.222  11.575  0.0000  0.0000  0.0000
 1888TMC3  CA4013329   0.435   0.298  11.689  0.0000  0.0000  0.0000
 1888TMC3  CA4113330   0.442   0.438  11.680  0.0000  0.0000  0.0000
 1888TMC3  CA4213331   0.467   0.495  11.559  0.0000  0.0000  0.0000
 1888TMC3  CB4313332   0.546   0.487  11.320  0.0000  0.0000  0.0000
 1888TMC3  CB4413333   0.428   0.073  11.577  0.0000  0.0000  0.0000
 1888TMC3  CB4513334   0.415   0.521  11.794  0.0000  0.0000  0.0000
 1888TMC3  HA4613335   0.502   0.227  11.364  0.0000  0.0000  0.0000
 1888TMC3  HA4713336   0.430   0.237  11.779  0.0000  0.0000  0.0000
 1888TMC3  HA4813337   0.475   0.603  11.554  0.0000  0.0000  0.0000
 1888TMC3   O4913338   0.603   0.595  11.329  0.0000  0.0000  0.0000
 1888TMC3   O5013339   0.440   0.013  11.683  0.0000  0.0000  0.0000
 1888TMC3   O5113340   0.383   0.639  11.782  0.0000  0.0000  0.0000
 1889TMC3  CA3713341   2.517   0.848  10.290  0.0000  0.0000  0.0000
 1889TMC3  CA3813342   2.458   0.938  10.381  0.0000  0.0000  0.0000
 1889TMC3  CA3913343   2.538   1.037  10.441  0.0000  0.0000  0.0000
 1889TMC3  CA4013344   2.671   1.048  10.421  0.0000  0.0000  0.0000
 1889TMC3  CA4113345   2.733   0.947  10.346  0.0000  0.0000  0.0000
 1889TMC3  CA4213346   2.654   0.849  10.278  0.0000  0.0000  0.0000
 1889TMC3  CB4313347   2.448   0.766  10.182  0.0000  0.0000  0.0000
 1889TMC3  CB4413348   2.468   1.142  10.515  0.0000  0.0000  0.0000
 1889TMC3  CB4513349   2.880   0.943  10.331  0.0000  0.0000  0.0000
 1889TMC3  HA4613350   2.350   0.940  10.388  0.0000  0.0000  0.0000
 1889TMC3  HA4713351   2.734   1.129  10.456  0.0000  0.0000  0.0000
 1889TMC3  HA4813352   2.697   0.780  10.207  0.0000  0.0000  0.0000
 1889TMC3   O4913353   2.493   0.659  10.146  0.0000  0.0000  0.0000
 1889TMC3   O5013354   2.347   1.152  10.524  0.0000  0.0000  0.0000
 1889TMC3   O5113355   2.949   1.003  10.411  0.0000  0.0000  0.0000
 1890TMC3  CA3713356  -0.777   0.804  10.351  0.0000  0.0000  0.0000
 1890TMC3  CA3813357  -0.753   0.925  10.399  0.0000  0.0000  0.0000
 1890TMC3  CA3913358  -0.675   0.932  10.508  0.0000  0.0000  0.0000
 1890TMC3  CA4013359  -0.606   0.820  10.557  0.0000  0.0000  0.0000
 1890TMC3  CA4113360  -0.627   0.691  10.509  0.0000  0.0000  0.0000
 1890TMC3  CA4213361  -0.720   0.686  10.402  0.0000  0.0000  0.0000
 1890TMC3  CB4313362  -0.861   0.781  10.235  0.0000  0.0000  0.0000
 1890TMC3  CB4413363  -0.637   1.069  10.569  0.0000  0.0000  0.0000
 1890TMC3  CB4513364  -0.551   0.569  10.547  0.0000  0.0000  0.0000
 1890TMC3  HA4613365  -0.782   1.020  10.355  0.0000  0.0000  0.0000
 1890TMC3  HA4713366  -0.528   0.844  10.628  0.0000  0.0000  0.0000
 1890TMC3  HA4813367  -0.748   0.591  10.358  0.0000  0.0000  0.0000
 1890TMC3   O4913368  -0.966   0.710  10.240  0.0000  0.0000  0.0000
 1890TMC3   O5013369  -0.661   1.173  10.510  0.0000  0.0000  0.0000
 1890TMC3   O5113370  -0.600   0.461  10.518  0.0000  0.0000  0.0000
 1891TMC3  CA3713371  -0.009   1.634  10.426  0.0000  0.0000  0.0000
 1891TMC3  CA3813372  -0.055   1.764  10.455  0.0000  0.0000  0.0000
 1891TMC3  CA3913373  -0.145   1.788  10.557  0.0000  0.0000  0.0000
 1891TMC3  CA4013374  -0.189   1.684  10.634  0.0000  0.0000  0.0000
 1891TMC3  CA4113375  -0.143   1.555  10.616  0.0000  0.0000  0.0000
 1891TMC3  CA4213376  -0.043   1.533  10.523  0.0000  0.0000  0.0000
 1891TMC3  CB4313377   0.095   1.611  10.320  0.0000  0.0000  0.0000
 1891TMC3  CB4413378  -0.185   1.930  10.586  0.0000  0.0000  0.0000
 1891TMC3  CB4513379  -0.190   1.444  10.696  0.0000  0.0000  0.0000
 1891TMC3  HA4613380  -0.007   1.842  10.397  0.0000  0.0000  0.0000
 1891TMC3  HA4713381  -0.244   1.706  10.724  0.0000  0.0000  0.0000
 1891TMC3  HA4813382   0.014   1.441  10.512  0.0000  0.0000  0.0000
 1891TMC3   O4913383   0.175   1.703  10.296  0.0000  0.0000  0.0000
 1891TMC3   O5013384  -0.115   2.023  10.557  0.0000  0.0000  0.0000
 1891TMC3   O5113385  -0.134   1.335  10.706  0.0000  0.0000  0.0000
 1892TMC2   C2013386   0.545   1.190  10.743  0.0000  0.0000  0.0000
 1892TMC2  CA2113387   0.573   1.341  10.751  0.0000  0.0000  0.0000
 1892TMC2  CA2213388   0.498   1.418  10.839  0.0000  0.0000  0.0000
 1892TMC2  CA2313389   0.519   1.553  10.851  0.0000  0.0000  0.0000
 1892TMC2  CA2413390   0.611   1.613  10.763  0.0000  0.0000  0.0000
 1892TMC2  CA2513391   0.695   1.535  10.675  0.0000  0.0000  0.0000
 1892TMC2  CA2613392   0.668   1.396  10.666  0.0000  0.0000  0.0000
 1892TMC2  CB2713393   0.426   1.634  10.937  0.0000  0.0000  0.0000
 1892TMC2  CB2813394   0.797   1.599  10.592  0.0000  0.0000  0.0000
 1892TMC2  HA2913395   0.415   1.367  10.886  0.0000  0.0000  0.0000
 1892TMC2  HA3013396   0.624   1.721  10.770  0.0000  0.0000  0.0000
 1892TMC2  HA3113397   0.722   1.337  10.592  0.0000  0.0000  0.0000
 1892TMC2  HO3213398   0.508   1.196  10.922  0.0000  0.0000  0.0000
 1892TMC2   O3313399   0.545   1.134  10.635  0.0000  0.0000  0.0000
 1892TMC2   O3413400   0.412   1.758  10.928  0.0000  0.0000  0.0000
 1892TMC2   O3513401   0.797   1.720  10.587  0.0000  0.0000  0.0000
 1892TMC2  OH3613402   0.507   1.123  10.857  0.0000  0.0000  0.0000
 1893TMC3  CA3713403   2.068   1.634  10.906  0.0000  0.0000  0.0000
 1893TMC3  CA3813404   1.933   1.629  10.877  0.0000  0.0000  0.0000
 1893TMC3  CA3913405   1.843   1.696  10.948  0.0000  0.0000  0.0000
 1893TMC3  CA4013406   1.884   1.769  11.062  0.0000  0.0000  0.0000
 1893TMC3  CA4113407   2.017   1.787  11.090  0.0000  0.0000  0.0000
 1893TMC3  CA4213408   2.109   1.715  11.011  0.0000  0.0000  0.0000
 1893TMC3  CB4313409   2.166   1.567  10.811  0.0000  0.0000  0.0000
 1893TMC3  CB4413410   1.701   1.667  10.903  0.0000  0.0000  0.0000
 1893TMC3  CB4513411   2.071   1.863  11.209  0.0000  0.0000  0.0000
 1893TMC3  HA4613412   1.898   1.579  10.787  0.0000  0.0000  0.0000
 1893TMC3  HA4713413   1.805   1.812  11.122  0.0000  0.0000  0.0000
 1893TMC3  HA4813414   2.214   1.724  11.038  0.0000  0.0000  0.0000
 1893TMC3   O4913415   2.122   1.514  10.710  0.0000  0.0000  0.0000
 1893TMC3   O5013416   1.675   1.562  10.849  0.0000  0.0000  0.0000
 1893TMC3   O5113417   2.188   1.864  11.233  0.0000  0.0000  0.0000
 1894TMC3  CA3713418   0.633  -0.580  11.384  0.0000  0.0000  0.0000
 1894TMC3  CA3813419   0.586  -0.640  11.268  0.0000  0.0000  0.0000
 1894TMC3  CA3913420   0.570  -0.560  11.154  0.0000  0.0000  0.0000
 1894TMC3  CA4013421   0.621  -0.430  11.153  0.0000  0.0000  0.0000
 1894TMC3  CA4113422   0.671  -0.377  11.273  0.0000  0.0000  0.0000
 1894TMC3  CA4213423   0.684  -0.451  11.384  0.0000  0.0000  0.0000
 1894TMC3  CB4313424   0.626  -0.665  11.508  0.0000  0.0000  0.0000
 1894TMC3  CB4413425   0.502  -0.613  11.028  0.0000  0.0000  0.0000
 1894TMC3  CB4513426   0.736  -0.239  11.255  0.0000  0.0000  0.0000
 1894TMC3  HA4613427   0.544  -0.740  11.263  0.0000  0.0000  0.0000
 1894TMC3  HA4713428   0.628  -0.368  11.064  0.0000  0.0000  0.0000
 1894TMC3  HA4813429   0.738  -0.402  11.464  0.0000  0.0000  0.0000
 1894TMC3   O4913430   0.548  -0.761  11.507  0.0000  0.0000  0.0000
 1894TMC3   O5013431   0.481  -0.734  11.011  0.0000  0.0000  0.0000
 1894TMC3   O5113432   0.805  -0.213  11.158  0.0000  0.0000  0.0000
 1895TMC3  CA3713433   2.210  -1.034  10.574  0.0000  0.0000  0.0000
 1895TMC3  CA3813434   2.135  -1.049  10.463  0.0000  0.0000  0.0000
 1895TMC3  CA3913435   2.006  -0.990  10.461  0.0000  0.0000  0.0000
 1895TMC3  CA4013436   1.947  -0.931  10.575  0.0000  0.0000  0.0000
 1895TMC3  CA4113437   2.017  -0.935  10.694  0.0000  0.0000  0.0000
 1895TMC3  CA4213438   2.154  -0.978  10.688  0.0000  0.0000  0.0000
 1895TMC3  CB4313439   2.340  -1.100  10.590  0.0000  0.0000  0.0000
 1895TMC3  CB4413440   1.929  -0.976  10.335  0.0000  0.0000  0.0000
 1895TMC3  CB4513441   1.955  -0.861  10.811  0.0000  0.0000  0.0000
 1895TMC3  HA4613442   2.176  -1.106  10.380  0.0000  0.0000  0.0000
 1895TMC3  HA4713443   1.843  -0.899  10.570  0.0000  0.0000  0.0000
 1895TMC3  HA4813444   2.211  -0.968  10.780  0.0000  0.0000  0.0000
 1895TMC3   O4913445   2.356  -1.214  10.541  0.0000  0.0000  0.0000
 1895TMC3   O5013446   1.808  -0.984  10.346  0.0000  0.0000  0.0000
 1895TMC3   O5113447   2.016  -0.864  10.913  0.0000  0.0000  0.0000
 1896TMC3  CA3713448   0.581   0.738  10.157  0.0000  0.0000  0.0000
 1896TMC3  CA3813449   0.501   0.851  10.169  0.0000  0.0000  0.0000
 1896TMC3  CA3913450   0.365   0.846  10.136  0.0000  0.0000  0.0000
 1896TMC3  CA4013451   0.305   0.730  10.084  0.0000  0.0000  0.0000
 1896TMC3  CA4113452   0.390   0.618  10.061  0.0000  0.0000  0.0000
 1896TMC3  CA4213453   0.524   0.627  10.093  0.0000  0.0000  0.0000
 1896TMC3  CB4313454   0.726   0.732  10.185  0.0000  0.0000  0.0000
 1896TMC3  CB4413455   0.274   0.967  10.132  0.0000  0.0000  0.0000
 1896TMC3  CB4513456   0.355   0.477  10.019  0.0000  0.0000  0.0000
 1896TMC3  HA4613457   0.536   0.942  10.218  0.0000  0.0000  0.0000
 1896TMC3  HA4713458   0.200   0.725  10.056  0.0000  0.0000  0.0000
 1896TMC3  HA4813459   0.600   0.554  10.066  0.0000  0.0000  0.0000
 1896TMC3   O4913460   0.776   0.628  10.226  0.0000  0.0000  0.0000
 1896TMC3   O5013461   0.149   0.965  10.135  0.0000  0.0000  0.0000
 1896TMC3   O5113462   0.433   0.387  10.025  0.0000  0.0000  0.0000
 1897TMC3  CA3713463   3.704   1.278  10.415  0.0000  0.0000  0.0000
 1897TMC3  CA3813464   3.691   1.233  10.547  0.0000  0.0000  0.0000
 1897TMC3  CA3913465   3.633   1.109  10.569  0.0000  0.0000  0.0000
 1897TMC3  CA4013466   3.573   1.031  10.468  0.0000  0.0000  0.0000
 1897TMC3  CA4113467   3.592   1.070  10.338  0.0000  0.0000  0.0000
 1897TMC3  CA4213468   3.659   1.194  10.313  0.0000  0.0000  0.0000
 1897TMC3  CB4313469   3.749   1.417  10.370  0.0000  0.0000  0.0000
 1897TMC3  CB4413470   3.639   1.051  10.703  0.0000  0.0000  0.0000
 1897TMC3  CB4513471   3.524   0.986  10.230  0.0000  0.0000  0.0000
 1897TMC3  HA4613472   3.730   1.296  10.627  0.0000  0.0000  0.0000
 1897TMC3  HA4713473   3.524   0.937  10.494  0.0000  0.0000  0.0000
 1897TMC3  HA4813474   3.662   1.228  10.210  0.0000  0.0000  0.0000
 1897TMC3   O4913475   3.766   1.442  10.250  0.0000  0.0000  0.0000
 1897TMC3   O5013476   3.659   0.933  10.732  0.0000  0.0000  0.0000
 1897TMC3   O5113477   3.570   0.985  10.120  0.0000  0.0000  0.0000
 1898TMC3  CA3713478   1.480   0.634  10.216  0.0000  0.0000  0.0000
 1898TMC3  CA3813479   1.430   0.521  10.275  0.0000  0.0000  0.0000
 1898TMC3  CA3913480   1.504   0.403  10.277  0.0000  0.0000  0.0000
 1898TMC3  CA4013481   1.621   0.398  10.204  0.0000  0.0000  0.0000
 1898TMC3  CA4113482   1.672   0.504  10.150  0.0000  0.0000  0.0000
 1898TMC3  CA4213483   1.606   0.626  10.160  0.0000  0.0000  0.0000
 1898TMC3  CB4313484   1.396   0.757  10.205  0.0000  0.0000  0.0000
 1898TMC3  CB4413485   1.453   0.286  10.356  0.0000  0.0000  0.0000
 1898TMC3  CB4513486   1.795   0.504  10.067  0.0000  0.0000  0.0000
 1898TMC3  HA4613487   1.343   0.530  10.339  0.0000  0.0000  0.0000
 1898TMC3  HA4713488   1.677   0.305  10.194  0.0000  0.0000  0.0000
 1898TMC3  HA4813489   1.646   0.719  10.119  0.0000  0.0000  0.0000
 1898TMC3   O4913490   1.453   0.863  10.182  0.0000  0.0000  0.0000
 1898TMC3   O5013491   1.395   0.307  10.460  0.0000  0.0000  0.0000
 1898TMC3   O5113492   1.860   0.607  10.057  0.0000  0.0000  0.0000
 1899TMC3  CA3713493  -0.046   1.157  11.557  0.0000  0.0000  0.0000
 1899TMC3  CA3813494  -0.179   1.183  11.524  0.0000  0.0000  0.0000
 1899TMC3  CA3913495  -0.225   1.183  11.393  0.0000  0.0000  0.0000
 1899TMC3  CA4013496  -0.139   1.157  11.287  0.0000  0.0000  0.0000
 1899TMC3  CA4113497  -0.006   1.137  11.320  0.0000  0.0000  0.0000
 1899TMC3  CA4213498   0.043   1.134  11.450  0.0000  0.0000  0.0000
 1899TMC3  CB4313499   0.002   1.166  11.695  0.0000  0.0000  0.0000
 1899TMC3  CB4413500  -0.367   1.221  11.362  0.0000  0.0000  0.0000
 1899TMC3  CB4513501   0.096   1.125  11.210  0.0000  0.0000  0.0000
 1899TMC3  HA4613502  -0.244   1.219  11.603  0.0000  0.0000  0.0000
 1899TMC3  HA4713503  -0.180   1.169  11.187  0.0000  0.0000  0.0000
 1899TMC3  HA4813504   0.148   1.114  11.468  0.0000  0.0000  0.0000
 1899TMC3   O4913505   0.117   1.184  11.721  0.0000  0.0000  0.0000
 1899TMC3   O5013506  -0.409   1.204  11.251  0.0000  0.0000  0.0000
 1899TMC3   O5113507   0.210   1.081  11.231  0.0000  0.0000  0.0000
 1900TMC3  CA3713508   1.188   2.325  11.508  0.0000  0.0000  0.0000
 1900TMC3  CA3813509   1.075   2.305  11.593  0.0000  0.0000  0.0000
 1900TMC3  CA3913510   1.021   2.185  11.616  0.0000  0.0000  0.0000
 1900TMC3  CA4013511   1.081   2.074  11.565  0.0000  0.0000  0.0000
 1900TMC3  CA4113512   1.200   2.082  11.489  0.0000  0.0000  0.0000
 1900TMC3  CA4213513   1.253   2.212  11.454  0.0000  0.0000  0.0000
 1900TMC3  CB4313514   1.238   2.462  11.483  0.0000  0.0000  0.0000
 1900TMC3  CB4413515   0.902   2.182  11.716  0.0000  0.0000  0.0000
 1900TMC3  CB4513516   1.263   1.952  11.444  0.0000  0.0000  0.0000
 1900TMC3  HA4613517   1.041   2.388  11.654  0.0000  0.0000  0.0000
 1900TMC3  HA4713518   1.037   1.976  11.584  0.0000  0.0000  0.0000
 1900TMC3  HA4813519   1.331   2.221  11.379  0.0000  0.0000  0.0000
 1900TMC3   O4913520   1.223   2.556  11.561  0.0000  0.0000  0.0000
 1900TMC3   O5013521   0.833   2.284  11.731  0.0000  0.0000  0.0000
 1900TMC3   O5113522   1.316   1.946  11.332  0.0000  0.0000  0.0000
 1901TMC3  CA3713523   2.914  -0.729  10.496  0.0000  0.0000  0.0000
 1901TMC3  CA3813524   2.823  -0.821  10.435  0.0000  0.0000  0.0000
 1901TMC3  CA3913525   2.693  -0.777  10.396  0.0000  0.0000  0.0000
 1901TMC3  CA4013526   2.651  -0.648  10.426  0.0000  0.0000  0.0000
 1901TMC3  CA4113527   2.744  -0.556  10.483  0.0000  0.0000  0.0000
 1901TMC3  CA4213528   2.873  -0.600  10.510  0.0000  0.0000  0.0000
 1901TMC3  CB4313529   3.047  -0.776  10.541  0.0000  0.0000  0.0000
 1901TMC3  CB4413530   2.595  -0.873  10.326  0.0000  0.0000  0.0000
 1901TMC3  CB4513531   2.705  -0.417  10.515  0.0000  0.0000  0.0000
 1901TMC3  HA4613532   2.841  -0.926  10.413  0.0000  0.0000  0.0000
 1901TMC3  HA4713533   2.550  -0.613  10.403  0.0000  0.0000  0.0000
 1901TMC3  HA4813534   2.943  -0.526  10.550  0.0000  0.0000  0.0000
 1901TMC3   O4913535   3.101  -0.876  10.487  0.0000  0.0000  0.0000
 1901TMC3   O5013536   2.625  -0.994  10.314  0.0000  0.0000  0.0000
 1901TMC3   O5113537   2.594  -0.381  10.478  0.0000  0.0000  0.0000
 1902TMC2   C2013538  -0.668   1.843  10.937  0.0000  0.0000  0.0000
 1902TMC2  CA2113539  -0.536   1.901  10.982  0.0000  0.0000  0.0000
 1902TMC2  CA2213540  -0.429   1.808  10.987  0.0000  0.0000  0.0000
 1902TMC2  CA2313541  -0.305   1.852  11.040  0.0000  0.0000  0.0000
 1902TMC2  CA2413542  -0.289   1.984  11.079  0.0000  0.0000  0.0000
 1902TMC2  CA2513543  -0.394   2.080  11.066  0.0000  0.0000  0.0000
 1902TMC2  CA2613544  -0.523   2.035  11.022  0.0000  0.0000  0.0000
 1902TMC2  CB2713545  -0.180   1.764  11.033  0.0000  0.0000  0.0000
 1902TMC2  CB2813546  -0.390   2.224  11.111  0.0000  0.0000  0.0000
 1902TMC2  HA2913547  -0.440   1.703  10.961  0.0000  0.0000  0.0000
 1902TMC2  HA3013548  -0.194   2.020  11.118  0.0000  0.0000  0.0000
 1902TMC2  HA3113549  -0.607   2.103  11.026  0.0000  0.0000  0.0000
 1902TMC2  HO3213550  -0.718   1.990  11.015  0.0000  0.0000  0.0000
 1902TMC2   O3313551  -0.688   1.731  10.888  0.0000  0.0000  0.0000
 1902TMC2   O3413552  -0.174   1.666  10.952  0.0000  0.0000  0.0000
 1902TMC2   O3513553  -0.495   2.291  11.116  0.0000  0.0000  0.0000
 1902TMC2  OH3613554  -0.766   1.924  10.962  0.0000  0.0000  0.0000
 1903TMC3  CA3713555   0.189  -0.223   9.960  0.0000  0.0000  0.0000
 1903TMC3  CA3813556   0.281  -0.300  10.032  0.0000  0.0000  0.0000
 1903TMC3  CA3913557   0.263  -0.437  10.056  0.0000  0.0000  0.0000
 1903TMC3  CA4013558   0.146  -0.498  10.013  0.0000  0.0000  0.0000
 1903TMC3  CA4113559   0.047  -0.423   9.949  0.0000  0.0000  0.0000
 1903TMC3  CA4213560   0.076  -0.290   9.911  0.0000  0.0000  0.0000
 1903TMC3  CB4313561   0.204  -0.076   9.950  0.0000  0.0000  0.0000
 1903TMC3  CB4413562   0.374  -0.520  10.113  0.0000  0.0000  0.0000
 1903TMC3  CB4513563  -0.069  -0.504   9.894  0.0000  0.0000  0.0000
 1903TMC3  HA4613564   0.363  -0.254  10.086  0.0000  0.0000  0.0000
 1903TMC3  HA4713565   0.124  -0.605  10.019  0.0000  0.0000  0.0000
 1903TMC3  HA4813566   0.008  -0.234   9.849  0.0000  0.0000  0.0000
 1903TMC3   O4913567   0.305  -0.020   9.996  0.0000  0.0000  0.0000
 1903TMC3   O5013568   0.480  -0.469  10.127  0.0000  0.0000  0.0000
 1903TMC3   O5113569  -0.113  -0.506   9.779  0.0000  0.0000  0.0000
 1904TMC2   C2013570   0.738   1.214  12.296  0.0000  0.0000  0.0000
 1904TMC2  CA2113571   0.700   1.263  12.165  0.0000  0.0000  0.0000
 1904TMC2  CA2213572   0.708   1.399  12.127  0.0000  0.0000  0.0000
 1904TMC2  CA2313573   0.672   1.427  11.994  0.0000  0.0000  0.0000
 1904TMC2  CA2413574   0.620   1.330  11.914  0.0000  0.0000  0.0000
 1904TMC2  CA2513575   0.611   1.200  11.945  0.0000  0.0000  0.0000
 1904TMC2  CA2613576   0.647   1.164  12.075  0.0000  0.0000  0.0000
 1904TMC2  CB2713577   0.686   1.565  11.939  0.0000  0.0000  0.0000
 1904TMC2  CB2813578   0.555   1.103  11.849  0.0000  0.0000  0.0000
 1904TMC2  HA2913579   0.747   1.474  12.196  0.0000  0.0000  0.0000
 1904TMC2  HA3013580   0.584   1.356  11.815  0.0000  0.0000  0.0000
 1904TMC2  HA3113581   0.636   1.062  12.111  0.0000  0.0000  0.0000
 1904TMC2  HO3213582   0.873   1.354  12.315  0.0000  0.0000  0.0000
 1904TMC2   O3313583   0.686   1.120  12.354  0.0000  0.0000  0.0000
 1904TMC2   O3413584   0.723   1.578  11.825  0.0000  0.0000  0.0000
 1904TMC2   O3513585   0.499   1.004  11.894  0.0000  0.0000  0.0000
 1904TMC2  OH3613586   0.827   1.289  12.371  0.0000  0.0000  0.0000
 1905TMC3  CA3713587   3.601   1.862  10.138  0.0000  0.0000  0.0000
 1905TMC3  CA3813588   3.485   1.917  10.178  0.0000  0.0000  0.0000
 1905TMC3  CA3913589   3.373   1.835  10.189  0.0000  0.0000  0.0000
 1905TMC3  CA4013590   3.379   1.712  10.124  0.0000  0.0000  0.0000
 1905TMC3  CA4113591   3.496   1.662  10.076  0.0000  0.0000  0.0000
 1905TMC3  CA4213592   3.611   1.735  10.086  0.0000  0.0000  0.0000
 1905TMC3  CB4313593   3.721   1.953  10.132  0.0000  0.0000  0.0000
 1905TMC3  CB4413594   3.242   1.883  10.260  0.0000  0.0000  0.0000
 1905TMC3  CB4513595   3.506   1.530  10.013  0.0000  0.0000  0.0000
 1905TMC3  HA4613596   3.503   2.015  10.221  0.0000  0.0000  0.0000
 1905TMC3  HA4713597   3.287   1.653  10.125  0.0000  0.0000  0.0000
 1905TMC3  HA4813598   3.709   1.696  10.058  0.0000  0.0000  0.0000
 1905TMC3   O4913599   3.746   2.012  10.028  0.0000  0.0000  0.0000
 1905TMC3   O5013600   3.142   1.818  10.280  0.0000  0.0000  0.0000
 1905TMC3   O5113601   3.577   1.515   9.914  0.0000  0.0000  0.0000
 1906TMC3  CA3713602   2.328   2.230  11.128  0.0000  0.0000  0.0000
 1906TMC3  CA3813603   2.190   2.274  11.128  0.0000  0.0000  0.0000
 1906TMC3  CA3913604   2.100   2.234  11.029  0.0000  0.0000  0.0000
 1906TMC3  CA4013605   2.148   2.139  10.932  0.0000  0.0000  0.0000
 1906TMC3  CA4113606   2.280   2.097  10.930  0.0000  0.0000  0.0000
 1906TMC3  CA4213607   2.370   2.140  11.029  0.0000  0.0000  0.0000
 1906TMC3  CB4313608   2.419   2.267  11.241  0.0000  0.0000  0.0000
 1906TMC3  CB4413609   1.955   2.250  11.040  0.0000  0.0000  0.0000
 1906TMC3  CB4513610   2.328   1.997  10.824  0.0000  0.0000  0.0000
 1906TMC3  HA4613611   2.156   2.336  11.210  0.0000  0.0000  0.0000
 1906TMC3  HA4713612   2.085   2.115  10.846  0.0000  0.0000  0.0000
 1906TMC3  HA4813613   2.461   2.081  11.034  0.0000  0.0000  0.0000
 1906TMC3   O4913614   2.361   2.299  11.344  0.0000  0.0000  0.0000
 1906TMC3   O5013615   1.903   2.352  11.082  0.0000  0.0000  0.0000
 1906TMC3   O5113616   2.375   1.898  10.868  0.0000  0.0000  0.0000
 1907TMC3  CA3713617   3.374   1.487  11.286  0.0000  0.0000  0.0000
 1907TMC3  CA3813618   3.457   1.555  11.380  0.0000  0.0000  0.0000
 1907TMC3  CA3913619   3.423   1.686  11.413  0.0000  0.0000  0.0000
 1907TMC3  CA4013620   3.329   1.763  11.343  0.0000  0.0000  0.0000
 1907TMC3  CA4113621   3.247   1.704  11.249  0.0000  0.0000  0.0000
 1907TMC3  CA4213622   3.261   1.564  11.235  0.0000  0.0000  0.0000
 1907TMC3  CB4313623   3.403   1.347  11.233  0.0000  0.0000  0.0000
 1907TMC3  CB4413624   3.519   1.751  11.511  0.0000  0.0000  0.0000
 1907TMC3  CB4513625   3.138   1.779  11.191  0.0000  0.0000  0.0000
 1907TMC3  HA4613626   3.549   1.516  11.422  0.0000  0.0000  0.0000
 1907TMC3  HA4713627   3.310   1.866  11.371  0.0000  0.0000  0.0000
 1907TMC3  HA4813628   3.195   1.510  11.168  0.0000  0.0000  0.0000
 1907TMC3   O4913629   3.315   1.294  11.162  0.0000  0.0000  0.0000
 1907TMC3   O5013630   3.554   1.871  11.500  0.0000  0.0000  0.0000
 1907TMC3   O5113631   3.092   1.881  11.244  0.0000  0.0000  0.0000
 1908TMC3  CA3713632   1.943   2.482  10.006  0.0000  0.0000  0.0000
 1908TMC3  CA3813633   2.008   2.419  10.115  0.0000  0.0000  0.0000
 1908TMC3  CA3913634   1.939   2.335  10.204  0.0000  0.0000  0.0000
 1908TMC3  CA4013635   1.804   2.305  10.185  0.0000  0.0000  0.0000
 1908TMC3  CA4113636   1.740   2.371  10.078  0.0000  0.0000  0.0000
 1908TMC3  CA4213637   1.808   2.456   9.994  0.0000  0.0000  0.0000
 1908TMC3  CB4313638   2.002   2.577   9.907  0.0000  0.0000  0.0000
 1908TMC3  CB4413639   2.005   2.277  10.322  0.0000  0.0000  0.0000
 1908TMC3  CB4513640   1.595   2.348  10.056  0.0000  0.0000  0.0000
 1908TMC3  HA4613641   2.114   2.434  10.130  0.0000  0.0000  0.0000
 1908TMC3  HA4713642   1.765   2.219  10.238  0.0000  0.0000  0.0000
 1908TMC3  HA4813643   1.751   2.505   9.915  0.0000  0.0000  0.0000
 1908TMC3   O4913644   1.938   2.644   9.824  0.0000  0.0000  0.0000
 1908TMC3   O5013645   1.950   2.198  10.393  0.0000  0.0000  0.0000
 1908TMC3   O5113646   1.538   2.398   9.962  0.0000  0.0000  0.0000
 1909TMC3  CA3713647   0.224   1.988  10.735  0.0000  0.0000  0.0000
 1909TMC3  CA3813648   0.339   2.072  10.726  0.0000  0.0000  0.0000
 1909TMC3  CA3913649   0.459   2.032  10.657  0.0000  0.0000  0.0000
 1909TMC3  CA4013650   0.458   1.904  10.603  0.0000  0.0000  0.0000
 1909TMC3  CA4113651   0.342   1.821  10.606  0.0000  0.0000  0.0000
 1909TMC3  CA4213652   0.225   1.863  10.673  0.0000  0.0000  0.0000
 1909TMC3  CB4313653   0.106   2.028  10.814  0.0000  0.0000  0.0000
 1909TMC3  CB4413654   0.588   2.113  10.657  0.0000  0.0000  0.0000
 1909TMC3  CB4513655   0.347   1.681  10.548  0.0000  0.0000  0.0000
 1909TMC3  HA4613656   0.342   2.175  10.761  0.0000  0.0000  0.0000
 1909TMC3  HA4713657   0.550   1.860  10.565  0.0000  0.0000  0.0000
 1909TMC3  HA4813658   0.134   1.803  10.675  0.0000  0.0000  0.0000
 1909TMC3   O4913659   0.009   1.954  10.827  0.0000  0.0000  0.0000
 1909TMC3   O5013660   0.696   2.064  10.668  0.0000  0.0000  0.0000
 1909TMC3   O5113661   0.264   1.602  10.579  0.0000  0.0000  0.0000
 1910TMC3  CA3713662   0.064   2.528  10.831  0.0000  0.0000  0.0000
 1910TMC3  CA3813663   0.082   2.602  10.948  0.0000  0.0000  0.0000
 1910TMC3  CA3913664  -0.034   2.645  11.017  0.0000  0.0000  0.0000
 1910TMC3  CA4013665  -0.163   2.612  10.979  0.0000  0.0000  0.0000
 1910TMC3  CA4113666  -0.183   2.541  10.858  0.0000  0.0000  0.0000
 1910TMC3  CA4213667  -0.065   2.497  10.783  0.0000  0.0000  0.0000
 1910TMC3  CB4313668   0.177   2.487  10.747  0.0000  0.0000  0.0000
 1910TMC3  CB4413669  -0.015   2.741  11.140  0.0000  0.0000  0.0000
 1910TMC3  CB4513670  -0.313   2.478  10.832  0.0000  0.0000  0.0000
 1910TMC3  HA4613671   0.182   2.624  10.985  0.0000  0.0000  0.0000
 1910TMC3  HA4713672  -0.250   2.639  11.039  0.0000  0.0000  0.0000
 1910TMC3  HA4813673  -0.071   2.415  10.712  0.0000  0.0000  0.0000
 1910TMC3   O4913674   0.290   2.475  10.795  0.0000  0.0000  0.0000
 1910TMC3   O5013675  -0.095   2.827  11.148  0.0000  0.0000  0.0000
 1910TMC3   O5113676  -0.401   2.466  10.914  0.0000  0.0000  0.0000
 1911TMC3  CA3713677   0.299  -0.582  11.799  0.0000  0.0000  0.0000
 1911TMC3  CA3813678   0.346  -0.600  11.932  0.0000  0.0000  0.0000
 1911TMC3  CA3913679   0.299  -0.707  12.004  0.0000  0.0000  0.0000
 1911TMC3  CA4013680   0.200  -0.789  11.949  0.0000  0.0000  0.0000
 1911TMC3  CA4113681   0.144  -0.765  11.825  0.0000  0.0000  0.0000
 1911TMC3  CA4213682   0.197  -0.661  11.747  0.0000  0.0000  0.0000
 1911TMC3  CB4313683   0.346  -0.468  11.717  0.0000  0.0000  0.0000
 1911TMC3  CB4413684   0.345  -0.742  12.140  0.0000  0.0000  0.0000
 1911TMC3  CB4513685   0.049  -0.850  11.767  0.0000  0.0000  0.0000
 1911TMC3  HA4613686   0.417  -0.528  11.971  0.0000  0.0000  0.0000
 1911TMC3  HA4713687   0.170  -0.877  12.006  0.0000  0.0000  0.0000
 1911TMC3  HA4813688   0.149  -0.636  11.653  0.0000  0.0000  0.0000
 1911TMC3   O4913689   0.446  -0.405  11.756  0.0000  0.0000  0.0000
 1911TMC3   O5013690   0.273  -0.814  12.213  0.0000  0.0000  0.0000
 1911TMC3   O5113691  -0.047  -0.805  11.710  0.0000  0.0000  0.0000
 1912TMC3  CA3713692   1.006   2.442  10.865  0.0000  0.0000  0.0000
 1912TMC3  CA3813693   1.074   2.454  10.744  0.0000  0.0000  0.0000
 1912TMC3  CA3913694   1.099   2.348  10.666  0.0000  0.0000  0.0000
 1912TMC3  CA4013695   1.065   2.216  10.714  0.0000  0.0000  0.0000
 1912TMC3  CA4113696   1.008   2.204  10.839  0.0000  0.0000  0.0000
 1912TMC3  CA4213697   0.968   2.315  10.907  0.0000  0.0000  0.0000
 1912TMC3  CB4313698   0.973   2.565  10.947  0.0000  0.0000  0.0000
 1912TMC3  CB4413699   1.147   2.367  10.528  0.0000  0.0000  0.0000
 1912TMC3  CB4513700   0.990   2.061  10.891  0.0000  0.0000  0.0000
 1912TMC3  HA4613701   1.089   2.551  10.697  0.0000  0.0000  0.0000
 1912TMC3  HA4713702   1.108   2.128  10.669  0.0000  0.0000  0.0000
 1912TMC3  HA4813703   0.910   2.308  10.998  0.0000  0.0000  0.0000
 1912TMC3   O4913704   0.974   2.673  10.895  0.0000  0.0000  0.0000
 1912TMC3   O5013705   1.211   2.464  10.492  0.0000  0.0000  0.0000
 1912TMC3   O5113706   1.035   1.966  10.826  0.0000  0.0000  0.0000
 1913TMC1    C113707   2.134  -0.021  10.946  0.0000  0.0000  0.0000
 1913TMC1    C213708   1.835   0.172  11.293  0.0000  0.0000  0.0000
 1913TMC1   CA313709   2.019  -0.032  11.043  0.0000  0.0000  0.0000
 1913TMC1   CA413710   1.979   0.080  11.112  0.0000  0.0000  0.0000
 1913TMC1   CA513711   1.887   0.055  11.219  0.0000  0.0000  0.0000
 1913TMC1   CA613712   1.822  -0.069  11.235  0.0000  0.0000  0.0000
 1913TMC1   CA713713   1.865  -0.179  11.160  0.0000  0.0000  0.0000
 1913TMC1   CA813714   1.956  -0.158  11.061  0.0000  0.0000  0.0000
 1913TMC1   CB913715   1.791  -0.313  11.179  0.0000  0.0000  0.0000
 1913TMC1  HA1013716   1.976  -0.242  10.996  0.0000  0.0000  0.0000
 1913TMC1  HA1113717   2.023   0.177  11.094  0.0000  0.0000  0.0000
 1913TMC1  HA1213718   1.748  -0.102  11.306  0.0000  0.0000  0.0000
 1913TMC1  HO1313719   2.093  -0.197  10.903  0.0000  0.0000  0.0000
 1913TMC1  HO1413720   1.761   0.058  11.422  0.0000  0.0000  0.0000
 1913TMC1   O1513721   2.190   0.086  10.919  0.0000  0.0000  0.0000
 1913TMC1   O1613722   1.852   0.283  11.248  0.0000  0.0000  0.0000
 1913TMC1   O1713723   1.743  -0.338  11.287  0.0000  0.0000  0.0000
 1913TMC1  OH1813724   2.149  -0.127  10.865  0.0000  0.0000  0.0000
 1913TMC1  OH1913725   1.751   0.150  11.394  0.0000  0.0000  0.0000
 1914TMC2   C2013726   3.713   1.600  11.103  0.0000  0.0000  0.0000
 1914TMC2  CA2113727   3.634   1.640  10.989  0.0000  0.0000  0.0000
 1914TMC2  CA2213728   3.597   1.559  10.887  0.0000  0.0000  0.0000
 1914TMC2  CA2313729   3.513   1.598  10.782  0.0000  0.0000  0.0000
 1914TMC2  CA2413730   3.465   1.729  10.785  0.0000  0.0000  0.0000
 1914TMC2  CA2513731   3.510   1.819  10.884  0.0000  0.0000  0.0000
 1914TMC2  CA2613732   3.590   1.773  10.984  0.0000  0.0000  0.0000
 1914TMC2  CB2713733   3.454   1.496  10.683  0.0000  0.0000  0.0000
 1914TMC2  CB2813734   3.461   1.960  10.883  0.0000  0.0000  0.0000
 1914TMC2  HA2913735   3.629   1.455  10.893  0.0000  0.0000  0.0000
 1914TMC2  HA3013736   3.389   1.759  10.714  0.0000  0.0000  0.0000
 1914TMC2  HA3113737   3.606   1.835  11.072  0.0000  0.0000  0.0000
 1914TMC2  HO3213738   3.806   1.489  10.988  0.0000  0.0000  0.0000
 1914TMC2   O3313739   3.705   1.652  11.211  0.0000  0.0000  0.0000
 1914TMC2   O3413740   3.464   1.375  10.692  0.0000  0.0000  0.0000
 1914TMC2   O3513741   3.382   1.998  10.798  0.0000  0.0000  0.0000
 1914TMC2  OH3613742   3.796   1.490  11.085  0.0000  0.0000  0.0000
 1915TMC1    C113743   0.116  -0.717  10.980  0.0000  0.0000  0.0000
 1915TMC1    C213744   0.388  -1.042  10.739  0.0000  0.0000  0.0000
 1915TMC1   CA313745   0.140  -0.789  10.859  0.0000  0.0000  0.0000
 1915TMC1   CA413746   0.233  -0.888  10.857  0.0000  0.0000  0.0000
 1915TMC1   CA513747   0.273  -0.946  10.741  0.0000  0.0000  0.0000
 1915TMC1   CA613748   0.199  -0.914  10.625  0.0000  0.0000  0.0000
 1915TMC1   CA713749   0.099  -0.820  10.626  0.0000  0.0000  0.0000
 1915TMC1   CA813750   0.072  -0.755  10.742  0.0000  0.0000  0.0000
 1915TMC1   CB913751   0.027  -0.788  10.496  0.0000  0.0000  0.0000
 1915TMC1  HA1013752   0.001  -0.672  10.741  0.0000  0.0000  0.0000
 1915TMC1  HA1113753   0.294  -0.916  10.943  0.0000  0.0000  0.0000
 1915TMC1  HA1213754   0.238  -0.963  10.536  0.0000  0.0000  0.0000
 1915TMC1  HO1313755   0.166  -0.870  11.063  0.0000  0.0000  0.0000
 1915TMC1  HO1413756   0.310  -1.125  10.589  0.0000  0.0000  0.0000
 1915TMC1   O1513757   0.063  -0.606  10.969  0.0000  0.0000  0.0000
 1915TMC1   O1613758   0.473  -1.041  10.833  0.0000  0.0000  0.0000
 1915TMC1   O1713759   0.010  -0.876  10.413  0.0000  0.0000  0.0000
 1915TMC1  OH1813760   0.157  -0.777  11.092  0.0000  0.0000  0.0000
 1915TMC1  OH1913761   0.396  -1.125  10.633  0.0000  0.0000  0.0000
 1916TMC1    C113762   3.114   0.311  10.737  0.0000  0.0000  0.0000
 1916TMC1    C213763   3.526   0.165  10.485  0.0000  0.0000  0.0000
 1916TMC1   CA313764   3.191   0.207  10.670  0.0000  0.0000  0.0000
 1916TMC1   CA413765   3.303   0.237  10.588  0.0000  0.0000  0.0000
 1916TMC1   CA513766   3.393   0.138  10.548  0.0000  0.0000  0.0000
 1916TMC1   CA613767   3.365   0.007  10.581  0.0000  0.0000  0.0000
 1916TMC1   CA713768   3.248  -0.037  10.639  0.0000  0.0000  0.0000
 1916TMC1   CA813769   3.164   0.066  10.691  0.0000  0.0000  0.0000
 1916TMC1   CB913770   3.238  -0.185  10.669  0.0000  0.0000  0.0000
 1916TMC1  HA1013771   3.078   0.038  10.750  0.0000  0.0000  0.0000
 1916TMC1  HA1113772   3.332   0.339  10.562  0.0000  0.0000  0.0000
 1916TMC1  HA1213773   3.445  -0.062  10.553  0.0000  0.0000  0.0000
 1916TMC1  HO1313774   3.261   0.411  10.708  0.0000  0.0000  0.0000
 1916TMC1  HO1413775   3.450   0.323  10.429  0.0000  0.0000  0.0000
 1916TMC1   O1513776   2.999   0.299  10.781  0.0000  0.0000  0.0000
 1916TMC1   O1613777   3.625   0.090  10.490  0.0000  0.0000  0.0000
 1916TMC1   O1713778   3.330  -0.259  10.642  0.0000  0.0000  0.0000
 1916TMC1  OH1813779   3.176   0.427  10.753  0.0000  0.0000  0.0000
 1916TMC1  OH1913780   3.540   0.287  10.432  0.0000  0.0000  0.0000
 1917TMC1    C113781   2.987   2.654  10.969  0.0000  0.0000  0.0000
 1917TMC1    C213782   3.300   2.422  10.663  0.0000  0.0000  0.0000
 1917TMC1   CA313783   3.063   2.531  10.940  0.0000  0.0000  0.0000
 1917TMC1   CA413784   3.148   2.532  10.826  0.0000  0.0000  0.0000
 1917TMC1   CA513785   3.214   2.418  10.782  0.0000  0.0000  0.0000
 1917TMC1   CA613786   3.206   2.301  10.863  0.0000  0.0000  0.0000
 1917TMC1   CA713787   3.126   2.297  10.983  0.0000  0.0000  0.0000
 1917TMC1   CA813788   3.051   2.410  11.014  0.0000  0.0000  0.0000
 1917TMC1   CB913789   3.120   2.168  11.060  0.0000  0.0000  0.0000
 1917TMC1  HA1013790   2.978   2.401  11.095  0.0000  0.0000  0.0000
 1917TMC1  HA1113791   3.158   2.623  10.768  0.0000  0.0000  0.0000
 1917TMC1  HA1213792   3.271   2.219  10.836  0.0000  0.0000  0.0000
 1917TMC1  HO1313793   2.831   2.544  11.002  0.0000  0.0000  0.0000
 1917TMC1  HO1413794   3.336   2.244  10.689  0.0000  0.0000  0.0000
 1917TMC1   O1513795   3.031   2.762  10.967  0.0000  0.0000  0.0000
 1917TMC1   O1613796   3.323   2.528  10.611  0.0000  0.0000  0.0000
 1917TMC1   O1713797   3.219   2.099  11.076  0.0000  0.0000  0.0000
 1917TMC1  OH1813798   2.856   2.637  11.015  0.0000  0.0000  0.0000
 1917TMC1  OH1913799   3.361   2.307  10.619  0.0000  0.0000  0.0000
 1918TMC3  CA3713800   0.885  -1.033  11.345  0.0000  0.0000  0.0000
 1918TMC3  CA3813801   0.753  -1.063  11.381  0.0000  0.0000  0.0000
 1918TMC3  CA3913802   0.717  -1.051  11.514  0.0000  0.0000  0.0000
 1918TMC3  CA4013803   0.809  -1.004  11.607  0.0000  0.0000  0.0000
 1918TMC3  CA4113804   0.936  -0.963  11.570  0.0000  0.0000  0.0000
 1918TMC3  CA4213805   0.971  -0.977  11.438  0.0000  0.0000  0.0000
 1918TMC3  CB4313806   0.942  -1.074  11.213  0.0000  0.0000  0.0000
 1918TMC3  CB4413807   0.575  -1.090  11.565  0.0000  0.0000  0.0000
 1918TMC3  CB4513808   1.037  -0.903  11.662  0.0000  0.0000  0.0000
 1918TMC3  HA4613809   0.695  -1.118  11.307  0.0000  0.0000  0.0000
 1918TMC3  HA4713810   0.788  -0.996  11.713  0.0000  0.0000  0.0000
 1918TMC3  HA4813811   1.072  -0.953  11.406  0.0000  0.0000  0.0000
 1918TMC3   O4913812   1.058  -1.057  11.189  0.0000  0.0000  0.0000
 1918TMC3   O5013813   0.486  -1.108  11.483  0.0000  0.0000  0.0000
 1918TMC3   O5113814   1.088  -0.793  11.639  0.0000  0.0000  0.0000
 1919TMC2   C2013815   4.228   0.941  11.826  0.0000  0.0000  0.0000
 1919TMC2  CA2113816   4.132   1.030  11.897  0.0000  0.0000  0.0000
 1919TMC2  CA2213817   4.040   1.112  11.833  0.0000  0.0000  0.0000
 1919TMC2  CA2313818   3.963   1.207  11.896  0.0000  0.0000  0.0000
 1919TMC2  CA2413819   3.966   1.209  12.035  0.0000  0.0000  0.0000
 1919TMC2  CA2513820   4.061   1.131  12.100  0.0000  0.0000  0.0000
 1919TMC2  CA2613821   4.152   1.053  12.035  0.0000  0.0000  0.0000
 1919TMC2  CB2713822   3.882   1.302  11.822  0.0000  0.0000  0.0000
 1919TMC2  CB2813823   4.086   1.146  12.246  0.0000  0.0000  0.0000
 1919TMC2  HA2913824   4.040   1.110  11.724  0.0000  0.0000  0.0000
 1919TMC2  HA3013825   3.894   1.260  12.099  0.0000  0.0000  0.0000
 1919TMC2  HA3113826   4.219   0.997  12.100  0.0000  0.0000  0.0000
 1919TMC2  HO3213827   4.229   0.809  11.970  0.0000  0.0000  0.0000
 1919TMC2   O3313828   4.275   0.979  11.718  0.0000  0.0000  0.0000
 1919TMC2   O3413829   3.841   1.274  11.711  0.0000  0.0000  0.0000
 1919TMC2   O3513830   4.197   1.126  12.300  0.0000  0.0000  0.0000
 1919TMC2  OH3613831   4.266   0.825  11.881  0.0000  0.0000  0.0000
 1920TMC3  CA3713832  -0.201   0.648  11.635  0.0000  0.0000  0.0000
 1920TMC3  CA3813833  -0.298   0.691  11.545  0.0000  0.0000  0.0000
 1920TMC3  CA3913834  -0.276   0.781  11.442  0.0000  0.0000  0.0000
 1920TMC3  CA4013835  -0.141   0.832  11.426  0.0000  0.0000  0.0000
 1920TMC3  CA4113836  -0.040   0.772  11.498  0.0000  0.0000  0.0000
 1920TMC3  CA4213837  -0.072   0.682  11.605  0.0000  0.0000  0.0000
 1920TMC3  CB4313838  -0.244   0.555  11.742  0.0000  0.0000  0.0000
 1920TMC3  CB4413839  -0.401   0.832  11.383  0.0000  0.0000  0.0000
 1920TMC3  CB4513840   0.099   0.802  11.454  0.0000  0.0000  0.0000
 1920TMC3  HA4613841  -0.398   0.652  11.559  0.0000  0.0000  0.0000
 1920TMC3  HA4713842  -0.122   0.906  11.349  0.0000  0.0000  0.0000
 1920TMC3  HA4813843   0.009   0.637  11.662  0.0000  0.0000  0.0000
 1920TMC3   O4913844  -0.348   0.490  11.739  0.0000  0.0000  0.0000
 1920TMC3   O5013845  -0.499   0.857  11.451  0.0000  0.0000  0.0000
 1920TMC3   O5113846   0.126   0.808  11.331  0.0000  0.0000  0.0000
 1921TMC3  CA3713847   0.595   3.140  10.932  0.0000  0.0000  0.0000
 1921TMC3  CA3813848   0.714   3.157  11.004  0.0000  0.0000  0.0000
 1921TMC3  CA3913849   0.810   3.057  10.987  0.0000  0.0000  0.0000
 1921TMC3  CA4013850   0.773   2.936  10.920  0.0000  0.0000  0.0000
 1921TMC3  CA4113851   0.652   2.923  10.851  0.0000  0.0000  0.0000
 1921TMC3  CA4213852   0.561   3.025  10.859  0.0000  0.0000  0.0000
 1921TMC3  CB4313853   0.502   3.256  10.943  0.0000  0.0000  0.0000
 1921TMC3  CB4413854   0.947   3.079  11.039  0.0000  0.0000  0.0000
 1921TMC3  CB4513855   0.616   2.800  10.768  0.0000  0.0000  0.0000
 1921TMC3  HA4613856   0.735   3.240  11.071  0.0000  0.0000  0.0000
 1921TMC3  HA4713857   0.856   2.867  10.906  0.0000  0.0000  0.0000
 1921TMC3  HA4813858   0.466   3.023  10.807  0.0000  0.0000  0.0000
 1921TMC3   O4913859   0.524   3.355  11.012  0.0000  0.0000  0.0000
 1921TMC3   O5013860   0.964   3.161  11.126  0.0000  0.0000  0.0000
 1921TMC3   O5113861   0.516   2.791  10.708  0.0000  0.0000  0.0000
 1922TMC1    C113862  -0.463   1.547  11.940  0.0000  0.0000  0.0000
 1922TMC1    C213863  -0.079   1.850  11.856  0.0000  0.0000  0.0000
 1922TMC1   CA313864  -0.322   1.589  11.977  0.0000  0.0000  0.0000
 1922TMC1   CA413865  -0.271   1.704  11.918  0.0000  0.0000  0.0000
 1922TMC1   CA513866  -0.136   1.736  11.934  0.0000  0.0000  0.0000
 1922TMC1   CA613867  -0.055   1.668  12.025  0.0000  0.0000  0.0000
 1922TMC1   CA713868  -0.111   1.560  12.090  0.0000  0.0000  0.0000
 1922TMC1   CA813869  -0.241   1.517  12.063  0.0000  0.0000  0.0000
 1922TMC1   CB913870  -0.029   1.498  12.201  0.0000  0.0000  0.0000
 1922TMC1  HA1013871  -0.287   1.437  12.119  0.0000  0.0000  0.0000
 1922TMC1  HA1113872  -0.329   1.749  11.837  0.0000  0.0000  0.0000
 1922TMC1  HA1213873   0.044   1.705  12.046  0.0000  0.0000  0.0000
 1922TMC1  HO1313874  -0.481   1.484  12.113  0.0000  0.0000  0.0000
 1922TMC1  HO1413875   0.083   1.852  11.958  0.0000  0.0000  0.0000
 1922TMC1   O1513876  -0.513   1.563  11.828  0.0000  0.0000  0.0000
 1922TMC1   O1613877  -0.134   1.927  11.777  0.0000  0.0000  0.0000
 1922TMC1   O1713878   0.018   1.573  12.288  0.0000  0.0000  0.0000
 1922TMC1  OH1813879  -0.535   1.477  12.033  0.0000  0.0000  0.0000
 1922TMC1  OH1913880   0.047   1.883  11.873  0.0000  0.0000  0.0000
 1923TMC2   C2013881   0.788  -0.516  10.488  0.0000  0.0000  0.0000
 1923TMC2  CA2113882   0.783  -0.368  10.513  0.0000  0.0000  0.0000
 1923TMC2  CA2213883   0.903  -0.296  10.507  0.0000  0.0000  0.0000
 1923TMC2  CA2313884   0.900  -0.158  10.507  0.0000  0.0000  0.0000
 1923TMC2  CA2413885   0.786  -0.093  10.547  0.0000  0.0000  0.0000
 1923TMC2  CA2513886   0.667  -0.159  10.572  0.0000  0.0000  0.0000
 1923TMC2  CA2613887   0.670  -0.297  10.553  0.0000  0.0000  0.0000
 1923TMC2  CB2713888   1.026  -0.078  10.489  0.0000  0.0000  0.0000
 1923TMC2  CB2813889   0.537  -0.091  10.596  0.0000  0.0000  0.0000
 1923TMC2  HA2913890   0.995  -0.351  10.489  0.0000  0.0000  0.0000
 1923TMC2  HA3013891   0.794   0.013  10.569  0.0000  0.0000  0.0000
 1923TMC2  HA3113892   0.578  -0.353  10.568  0.0000  0.0000  0.0000
 1923TMC2  HO3213893   0.598  -0.503  10.476  0.0000  0.0000  0.0000
 1923TMC2   O3313894   0.887  -0.579  10.473  0.0000  0.0000  0.0000
 1923TMC2   O3413895   1.017   0.041  10.466  0.0000  0.0000  0.0000
 1923TMC2   O3513896   0.437  -0.157  10.593  0.0000  0.0000  0.0000
 1923TMC2  OH3613897   0.665  -0.570  10.495  0.0000  0.0000  0.0000
 1924TMC3  CA3713898   0.500   1.583  11.439  0.0000  0.0000  0.0000
 1924TMC3  CA3813899   0.458   1.714  11.403  0.0000  0.0000  0.0000
 1924TMC3  CA3913900   0.502   1.774  11.284  0.0000  0.0000  0.0000
 1924TMC3  CA4013901   0.601   1.709  11.211  0.0000  0.0000  0.0000
 1924TMC3  CA4113902   0.634   1.576  11.242  0.0000  0.0000  0.0000
 1924TMC3  CA4213903   0.582   1.506  11.356  0.0000  0.0000  0.0000
 1924TMC3  CB4313904   0.442   1.515  11.560  0.0000  0.0000  0.0000
 1924TMC3  CB4413905   0.476   1.919  11.252  0.0000  0.0000  0.0000
 1924TMC3  CB4513906   0.724   1.500  11.142  0.0000  0.0000  0.0000
 1924TMC3  HA4613907   0.384   1.766  11.463  0.0000  0.0000  0.0000
 1924TMC3  HA4713908   0.635   1.744  11.115  0.0000  0.0000  0.0000
 1924TMC3  HA4813909   0.615   1.406  11.383  0.0000  0.0000  0.0000
 1924TMC3   O4913910   0.442   1.394  11.560  0.0000  0.0000  0.0000
 1924TMC3   O5013911   0.386   1.970  11.315  0.0000  0.0000  0.0000
 1924TMC3   O5113912   0.710   1.380  11.119  0.0000  0.0000  0.0000
 1925TMC3  CA3713913   0.385   2.936  11.129  0.0000  0.0000  0.0000
 1925TMC3  CA3813914   0.296   2.924  11.019  0.0000  0.0000  0.0000
 1925TMC3  CA3913915   0.186   3.016  11.019  0.0000  0.0000  0.0000
 1925TMC3  CA4013916   0.179   3.113  11.119  0.0000  0.0000  0.0000
 1925TMC3  CA4113917   0.268   3.120  11.225  0.0000  0.0000  0.0000
 1925TMC3  CA4213918   0.368   3.025  11.233  0.0000  0.0000  0.0000
 1925TMC3  CB4313919   0.498   2.838  11.143  0.0000  0.0000  0.0000
 1925TMC3  CB4413920   0.077   3.005  10.916  0.0000  0.0000  0.0000
 1925TMC3  CB4513921   0.243   3.215  11.337  0.0000  0.0000  0.0000
 1925TMC3  HA4613922   0.317   2.844  10.948  0.0000  0.0000  0.0000
 1925TMC3  HA4713923   0.093   3.179  11.117  0.0000  0.0000  0.0000
 1925TMC3  HA4813924   0.433   3.014  11.319  0.0000  0.0000  0.0000
 1925TMC3   O4913925   0.485   2.725  11.087  0.0000  0.0000  0.0000
 1925TMC3   O5013926   0.078   2.924  10.829  0.0000  0.0000  0.0000
 1925TMC3   O5113927   0.132   3.259  11.353  0.0000  0.0000  0.0000
 1926TMC3  CA3713928   2.758   2.277  11.836  0.0000  0.0000  0.0000
 1926TMC3  CA3813929   2.599   2.186  11.813  0.0000  0.0000  0.0000
 1926TMC3  CA3913930   2.459   2.259  11.720  0.0000  0.0000  0.0000
 1926TMC3  CA4013931   2.477   2.435  11.646  0.0000  0.0000  0.0000
 1926TMC3  CA4113932   2.640   2.528  11.662  0.0000  0.0000  0.0000
 1926TMC3  CA4213933   2.780   2.449  11.762  0.0000  0.0000  0.0000
 1926TMC3  CB4313934   2.867   2.203  11.913  0.0000  0.0000  0.0000
 1926TMC3  CB4413935   2.331   2.181  11.702  0.0000  0.0000  0.0000
 1926TMC3  CB4513936   2.682   2.662  11.608  0.0000  0.0000  0.0000
 1926TMC3  HA4613937   2.590   2.086  11.855  0.0000  0.0000  0.0000
 1926TMC3  HA4713938   2.394   2.477  11.591  0.0000  0.0000  0.0000
 1926TMC3  HA4813939   2.876   2.495  11.782  0.0000  0.0000  0.0000
 1926TMC3   O4913940   2.848   2.091  11.955  0.0000  0.0000  0.0000
 1926TMC3   O5013941   2.288   2.105  11.786  0.0000  0.0000  0.0000
 1926TMC3   O5113942   2.777   2.723  11.660  0.0000  0.0000  0.0000
 1927TMC1    C113943   1.216  -1.358  12.191  0.0000  0.0000  0.0000
 1927TMC1    C213944   0.991  -1.478  12.605  0.0000  0.0000  0.0000
 1927TMC1   CA313945   1.114  -1.320  12.294  0.0000  0.0000  0.0000
 1927TMC1   CA413946   1.094  -1.400  12.406  0.0000  0.0000  0.0000
 1927TMC1   CA513947   0.998  -1.374  12.497  0.0000  0.0000  0.0000
 1927TMC1   CA613948   0.910  -1.265  12.475  0.0000  0.0000  0.0000
 1927TMC1   CA713949   0.928  -1.177  12.369  0.0000  0.0000  0.0000
 1927TMC1   CA813950   1.034  -1.203  12.283  0.0000  0.0000  0.0000
 1927TMC1   CB913951   0.836  -1.064  12.339  0.0000  0.0000  0.0000
 1927TMC1  HA1013952   1.039  -1.137  12.197  0.0000  0.0000  0.0000
 1927TMC1  HA1113953   1.144  -1.496  12.397  0.0000  0.0000  0.0000
 1927TMC1  HA1213954   0.829  -1.246  12.544  0.0000  0.0000  0.0000
 1927TMC1  HO1313955   1.183  -1.181  12.114  0.0000  0.0000  0.0000
 1927TMC1  HO1413956   0.842  -1.377  12.663  0.0000  0.0000  0.0000
 1927TMC1   O1513957   1.279  -1.463  12.190  0.0000  0.0000  0.0000
 1927TMC1   O1613958   1.065  -1.575  12.616  0.0000  0.0000  0.0000
 1927TMC1   O1713959   0.821  -1.031  12.221  0.0000  0.0000  0.0000
 1927TMC1  OH1813960   1.247  -1.254  12.108  0.0000  0.0000  0.0000
 1927TMC1  OH1913961   0.894  -1.452  12.696  0.0000  0.0000  0.0000
 1928TMC2   C2013962  -0.493   1.953  12.035  0.0000  0.0000  0.0000
 1928TMC2  CA2113963  -0.501   1.984  11.887  0.0000  0.0000  0.0000
 1928TMC2  CA2213964  -0.588   1.905  11.812  0.0000  0.0000  0.0000
 1928TMC2  CA2313965  -0.590   1.908  11.674  0.0000  0.0000  0.0000
 1928TMC2  CA2413966  -0.494   1.990  11.616  0.0000  0.0000  0.0000
 1928TMC2  CA2513967  -0.415   2.079  11.686  0.0000  0.0000  0.0000
 1928TMC2  CA2613968  -0.425   2.081  11.822  0.0000  0.0000  0.0000
 1928TMC2  CB2713969  -0.660   1.815  11.586  0.0000  0.0000  0.0000
 1928TMC2  CB2813970  -0.325   2.162  11.610  0.0000  0.0000  0.0000
 1928TMC2  HA2913971  -0.638   1.823  11.863  0.0000  0.0000  0.0000
 1928TMC2  HA3013972  -0.483   1.992  11.508  0.0000  0.0000  0.0000
 1928TMC2  HA3113973  -0.366   2.146  11.886  0.0000  0.0000  0.0000
 1928TMC2  HO3213974  -0.398   2.112  12.056  0.0000  0.0000  0.0000
 1928TMC2   O3313975  -0.550   1.856  12.091  0.0000  0.0000  0.0000
 1928TMC2   O3413976  -0.704   1.861  11.479  0.0000  0.0000  0.0000
 1928TMC2   O3513977  -0.334   2.178  11.487  0.0000  0.0000  0.0000
 1928TMC2  OH3613978  -0.432   2.038  12.110  0.0000  0.0000  0.0000
 1929TMC2   C2013979   1.397   2.118  10.765  0.0000  0.0000  0.0000
 1929TMC2  CA2113980   1.437   2.258  10.752  0.0000  0.0000  0.0000
 1929TMC2  CA2213981   1.507   2.291  10.637  0.0000  0.0000  0.0000
 1929TMC2  CA2313982   1.541   2.421  10.608  0.0000  0.0000  0.0000
 1929TMC2  CA2413983   1.506   2.522  10.701  0.0000  0.0000  0.0000
 1929TMC2  CA2513984   1.426   2.490  10.813  0.0000  0.0000  0.0000
 1929TMC2  CA2613985   1.392   2.356  10.839  0.0000  0.0000  0.0000
 1929TMC2  CB2713986   1.612   2.454  10.479  0.0000  0.0000  0.0000
 1929TMC2  CB2813987   1.389   2.592  10.920  0.0000  0.0000  0.0000
 1929TMC2  HA2913988   1.541   2.214  10.568  0.0000  0.0000  0.0000
 1929TMC2  HA3013989   1.533   2.624  10.675  0.0000  0.0000  0.0000
 1929TMC2  HA3113990   1.335   2.327  10.927  0.0000  0.0000  0.0000
 1929TMC2  HO3213991   1.433   2.095  10.587  0.0000  0.0000  0.0000
 1929TMC2   O3313992   1.355   2.077  10.873  0.0000  0.0000  0.0000
 1929TMC2   O3413993   1.636   2.362  10.404  0.0000  0.0000  0.0000
 1929TMC2   O3513994   1.313   2.570  11.016  0.0000  0.0000  0.0000
 1929TMC2  OH3613995   1.401   2.036  10.657  0.0000  0.0000  0.0000
 1930TMC3  CA3713996   2.158  -0.455  10.236  0.0000  0.0000  0.0000
 1930TMC3  CA3813997   2.063  -0.514  10.314  0.0000  0.0000  0.0000
 1930TMC3  CA3913998   1.936  -0.457  10.319  0.0000  0.0000  0.0000
 1930TMC3  CA4013999   1.919  -0.332  10.267  0.0000  0.0000  0.0000
 1930TMC3  CA4114000   2.010  -0.269  10.191  0.0000  0.0000  0.0000
 1930TMC3  CA4214001   2.135  -0.329  10.177  0.0000  0.0000  0.0000
 1930TMC3  CB4314002   2.294  -0.510  10.220  0.0000  0.0000  0.0000
 1930TMC3  CB4414003   1.824  -0.529  10.399  0.0000  0.0000  0.0000
 1930TMC3  CB4514004   1.987  -0.133  10.125  0.0000  0.0000  0.0000
 1930TMC3  HA4614005   2.082  -0.617  10.345  0.0000  0.0000  0.0000
 1930TMC3  HA4714006   1.826  -0.284  10.292  0.0000  0.0000  0.0000
 1930TMC3  HA4814007   2.213  -0.283  10.117  0.0000  0.0000  0.0000
 1930TMC3   O4914008   2.343  -0.572  10.311  0.0000  0.0000  0.0000
 1930TMC3   O5014009   1.844  -0.615  10.486  0.0000  0.0000  0.0000
 1930TMC3   O5114010   2.082  -0.055  10.123  0.0000  0.0000  0.0000
 1931TMC1    C114011   0.633   1.933  11.600  0.0000  0.0000  0.0000
 1931TMC1    C214012   0.803   2.308  11.331  0.0000  0.0000  0.0000
 1931TMC1   CA314013   0.621   2.074  11.564  0.0000  0.0000  0.0000
 1931TMC1   CA414014   0.708   2.122  11.471  0.0000  0.0000  0.0000
 1931TMC1   CA514015   0.708   2.260  11.439  0.0000  0.0000  0.0000
 1931TMC1   CA614016   0.603   2.343  11.476  0.0000  0.0000  0.0000
 1931TMC1   CA714017   0.503   2.292  11.557  0.0000  0.0000  0.0000
 1931TMC1   CA814018   0.515   2.159  11.601  0.0000  0.0000  0.0000
 1931TMC1   CB914019   0.374   2.369  11.563  0.0000  0.0000  0.0000
 1931TMC1  HA1014020   0.435   2.126  11.667  0.0000  0.0000  0.0000
 1931TMC1  HA1114021   0.795   2.068  11.437  0.0000  0.0000  0.0000
 1931TMC1  HA1214022   0.597   2.443  11.434  0.0000  0.0000  0.0000
 1931TMC1  HO1314023   0.472   1.970  11.684  0.0000  0.0000  0.0000
 1931TMC1  HO1414024   0.821   2.468  11.426  0.0000  0.0000  0.0000
 1931TMC1   O1514025   0.716   1.862  11.561  0.0000  0.0000  0.0000
 1931TMC1   O1614026   0.839   2.234  11.240  0.0000  0.0000  0.0000
 1931TMC1   O1714027   0.376   2.481  11.514  0.0000  0.0000  0.0000
 1931TMC1  OH1814028   0.523   1.889  11.672  0.0000  0.0000  0.0000
 1931TMC1  OH1914029   0.853   2.428  11.343  0.0000  0.0000  0.0000
 1932TMC2   C2014030   1.928   2.464  10.719  0.0000  0.0000  0.0000
 1932TMC2  CA2114031   1.978   2.563  10.825  0.0000  0.0000  0.0000
 1932TMC2  CA2214032   2.101   2.619  10.824  0.0000  0.0000  0.0000
 1932TMC2  CA2314033   2.141   2.710  10.923  0.0000  0.0000  0.0000
 1932TMC2  CA2414034   2.062   2.721  11.036  0.0000  0.0000  0.0000
 1932TMC2  CA2514035   1.932   2.664  11.034  0.0000  0.0000  0.0000
 1932TMC2  CA2614036   1.893   2.591  10.924  0.0000  0.0000  0.0000
 1932TMC2  CB2714037   2.282   2.767  10.909  0.0000  0.0000  0.0000
 1932TMC2  CB2814038   1.841   2.680  11.149  0.0000  0.0000  0.0000
 1932TMC2  HA2914039   2.165   2.593  10.740  0.0000  0.0000  0.0000
 1932TMC2  HA3014040   2.095   2.777  11.122  0.0000  0.0000  0.0000
 1932TMC2  HA3114041   1.794   2.548  10.916  0.0000  0.0000  0.0000
 1932TMC2  HO3214042   2.048   2.527  10.585  0.0000  0.0000  0.0000
 1932TMC2   O3314043   1.828   2.395  10.737  0.0000  0.0000  0.0000
 1932TMC2   O3414044   2.361   2.721  10.832  0.0000  0.0000  0.0000
 1932TMC2   O3514045   1.872   2.762  11.238  0.0000  0.0000  0.0000
 1932TMC2  OH3614046   1.990   2.451  10.600  0.0000  0.0000  0.0000
 1933TMC1    C114047   0.131   0.777  11.974  0.0000  0.0000  0.0000
 1933TMC1    C214048   0.213   0.857  12.455  0.0000  0.0000  0.0000
 1933TMC1   CA314049   0.183   0.867  12.084  0.0000  0.0000  0.0000
 1933TMC1   CA414050   0.180   0.823  12.216  0.0000  0.0000  0.0000
 1933TMC1   CA514051   0.212   0.911  12.317  0.0000  0.0000  0.0000
 1933TMC1   CA614052   0.261   1.038  12.289  0.0000  0.0000  0.0000
 1933TMC1   CA714053   0.251   1.085  12.159  0.0000  0.0000  0.0000
 1933TMC1   CA814054   0.211   1.000  12.053  0.0000  0.0000  0.0000
 1933TMC1   CB914055   0.286   1.228  12.138  0.0000  0.0000  0.0000
 1933TMC1  HA1014056   0.202   1.032  11.950  0.0000  0.0000  0.0000
 1933TMC1  HA1114057   0.147   0.724  12.245  0.0000  0.0000  0.0000
 1933TMC1  HA1214058   0.296   1.097  12.373  0.0000  0.0000  0.0000
 1933TMC1  HO1314059   0.155   0.633  12.088  0.0000  0.0000  0.0000
 1933TMC1  HO1414060   0.182   1.037  12.494  0.0000  0.0000  0.0000
 1933TMC1   O1514061   0.096   0.812  11.863  0.0000  0.0000  0.0000
 1933TMC1   O1614062   0.225   0.743  12.491  0.0000  0.0000  0.0000
 1933TMC1   O1714063   0.339   1.287  12.234  0.0000  0.0000  0.0000
 1933TMC1  OH1814064   0.140   0.644  11.992  0.0000  0.0000  0.0000
 1933TMC1  OH1914065   0.197   0.955  12.544  0.0000  0.0000  0.0000
 1934TMC1    C114066   2.221   3.273  10.199  0.0000  0.0000  0.0000
 1934TMC1    C214067   2.530   2.905  10.058  0.0000  0.0000  0.0000
 1934TMC1   CA314068   2.240   3.137  10.147  0.0000  0.0000  0.0000
 1934TMC1   CA414069   2.370   3.087  10.113  0.0000  0.0000  0.0000
 1934TMC1   CA514070   2.389   2.948  10.092  0.0000  0.0000  0.0000
 1934TMC1   CA614071   2.280   2.859  10.113  0.0000  0.0000  0.0000
 1934TMC1   CA714072   2.155   2.908  10.147  0.0000  0.0000  0.0000
 1934TMC1   CA814073   2.134   3.043  10.168  0.0000  0.0000  0.0000
 1934TMC1   CB914074   2.042   2.809  10.169  0.0000  0.0000  0.0000
 1934TMC1  HA1014075   2.040   3.079  10.209  0.0000  0.0000  0.0000
 1934TMC1  HA1114076   2.462   3.144  10.107  0.0000  0.0000  0.0000
 1934TMC1  HA1214077   2.292   2.751  10.101  0.0000  0.0000  0.0000
 1934TMC1  HO1314078   2.403   3.273  10.196  0.0000  0.0000  0.0000
 1934TMC1  HO1414079   2.524   3.041   9.926  0.0000  0.0000  0.0000
 1934TMC1   O1514080   2.113   3.327  10.204  0.0000  0.0000  0.0000
 1934TMC1   O1614081   2.595   2.811  10.103  0.0000  0.0000  0.0000
 1934TMC1   O1714082   2.078   2.696  10.200  0.0000  0.0000  0.0000
 1934TMC1  OH1814083   2.335   3.338  10.219  0.0000  0.0000  0.0000
 1934TMC1  OH1914084   2.592   2.985   9.969  0.0000  0.0000  0.0000
 1935TMC2   C2014085  -0.490   1.834  10.292  0.0000  0.0000  0.0000
 1935TMC2  CA2114086  -0.551   1.748  10.189  0.0000  0.0000  0.0000
 1935TMC2  CA2214087  -0.589   1.808  10.063  0.0000  0.0000  0.0000
 1935TMC2  CA2314088  -0.638   1.727   9.963  0.0000  0.0000  0.0000
 1935TMC2  CA2414089  -0.651   1.586   9.992  0.0000  0.0000  0.0000
 1935TMC2  CA2514090  -0.595   1.530  10.114  0.0000  0.0000  0.0000
 1935TMC2  CA2614091  -0.540   1.611  10.214  0.0000  0.0000  0.0000
 1935TMC2  CB2714092  -0.688   1.791   9.840  0.0000  0.0000  0.0000
 1935TMC2  CB2814093  -0.597   1.384  10.147  0.0000  0.0000  0.0000
 1935TMC2  HA2914094  -0.583   1.915  10.050  0.0000  0.0000  0.0000
 1935TMC2  HA3014095  -0.687   1.531   9.907  0.0000  0.0000  0.0000
 1935TMC2  HA3114096  -0.496   1.572  10.305  0.0000  0.0000  0.0000
 1935TMC2  HO3214097  -0.343   1.711  10.304  0.0000  0.0000  0.0000
 1935TMC2   O3314098  -0.537   1.938  10.328  0.0000  0.0000  0.0000
 1935TMC2   O3414099  -0.808   1.806   9.823  0.0000  0.0000  0.0000
 1935TMC2   O3514100  -0.563   1.348  10.257  0.0000  0.0000  0.0000
 1935TMC2  OH3614101  -0.381   1.785  10.355  0.0000  0.0000  0.0000
 1936MPD1   CA114102   1.693   0.172  13.416  0.0000  0.0000  0.0000
 1936MPD1   CA214103   1.575   0.215  13.480  0.0000  0.0000  0.0000
 1936MPD1   CA314104   1.575   0.336  13.560  0.0000  0.0000  0.0000
 1936MPD1   CA414105   1.687   0.412  13.568  0.0000  0.0000  0.0000
 1936MPD1   CA514106   1.805   0.356  13.514  0.0000  0.0000  0.0000
 1936MPD1   CA614107   1.806   0.246  13.441  0.0000  0.0000  0.0000
 1936MPD1  HA1014108   1.898   0.210  13.396  0.0000  0.0000  0.0000
 1936MPD1   HA714109   1.486   0.153  13.469  0.0000  0.0000  0.0000
 1936MPD1   HA814110   1.690   0.503  13.628  0.0000  0.0000  0.0000
 1936MPD1   HA914111   1.896   0.416  13.517  0.0000  0.0000  0.0000
 1936MPD1  HN1114112   1.790   0.029  13.301  0.0000  0.0000  0.0000
 1936MPD1  HN1214113   1.464   0.460  13.676  0.0000  0.0000  0.0000
 1936MPD1  HN1314114   1.395   0.309  13.642  0.0000  0.0000  0.0000
 1936MPD1  NB1414115   1.700   0.072  13.317  0.0000  0.0000  0.0000
 1936MPD1  NH1514116   1.461   0.380  13.614  0.0000  0.0000  0.0000
 1937MPD2  CA1614117   4.997  -2.705  12.337  0.0000  0.0000  0.0000
 1937MPD2  CA1714118   4.919  -2.807  12.398  0.0000  0.0000  0.0000
 1937MPD2  CA1814119   4.970  -2.899  12.486  0.0000  0.0000  0.0000
 1937MPD2  CA1914120   5.104  -2.888  12.523  0.0000  0.0000  0.0000
 1937MPD2  CA2014121   5.176  -2.784  12.473  0.0000  0.0000  0.0000
 1937MPD2  CA2114122   5.122  -2.691  12.386  0.0000  0.0000  0.0000
 1937MPD2  HA2214123   4.815  -2.816  12.368  0.0000  0.0000  0.0000
 1937MPD2  HA2314124   5.151  -2.948  12.600  0.0000  0.0000  0.0000
 1937MPD2  HA2414125   5.281  -2.784  12.499  0.0000  0.0000  0.0000
 1937MPD2  HA2514126   5.182  -2.607  12.352  0.0000  0.0000  0.0000
 1937MPD2  HN2614127   4.978  -2.525  12.239  0.0000  0.0000  0.0000
 1937MPD2  HN2714128   4.894  -3.085  12.476  0.0000  0.0000  0.0000
 1937MPD2  NB2814129   4.938  -2.618  12.245  0.0000  0.0000  0.0000
 1937MPD2  NB2914130   4.884  -3.002  12.534  0.0000  0.0000  0.0000
 1938MPD2  CA1614131   4.082  -2.526  12.599  0.0000  0.0000  0.0000
 1938MPD2  CA1714132   4.206  -2.590  12.612  0.0000  0.0000  0.0000
 1938MPD2  CA1814133   4.266  -2.611  12.741  0.0000  0.0000  0.0000
 1938MPD2  CA1914134   4.200  -2.559  12.849  0.0000  0.0000  0.0000
 1938MPD2  CA2014135   4.083  -2.488  12.835  0.0000  0.0000  0.0000
 1938MPD2  CA2114136   4.018  -2.476  12.711  0.0000  0.0000  0.0000
 1938MPD2  HA2214137   4.260  -2.617  12.522  0.0000  0.0000  0.0000
 1938MPD2  HA2314138   4.249  -2.577  12.944  0.0000  0.0000  0.0000
 1938MPD2  HA2414139   4.048  -2.449  12.930  0.0000  0.0000  0.0000
 1938MPD2  HA2514140   3.931  -2.412  12.698  0.0000  0.0000  0.0000
 1938MPD2  HN2614141   4.098  -2.475  12.393  0.0000  0.0000  0.0000
 1938MPD2  HN2714142   4.407  -2.738  12.672  0.0000  0.0000  0.0000
 1938MPD2  NB2814143   4.034  -2.499  12.467  0.0000  0.0000  0.0000
 1938MPD2  NB2914144   4.394  -2.674  12.750  0.0000  0.0000  0.0000
 1939TMC2   C2014145   4.975  -2.731  12.977  0.0000  0.0000  0.0000
 1939TMC2  CA2114146   4.854  -2.751  12.888  0.0000  0.0000  0.0000
 1939TMC2  CA2214147   4.726  -2.697  12.914  0.0000  0.0000  0.0000
 1939TMC2  CA2314148   4.622  -2.733  12.830  0.0000  0.0000  0.0000
 1939TMC2  CA2414149   4.630  -2.833  12.734  0.0000  0.0000  0.0000
 1939TMC2  CA2514150   4.759  -2.887  12.711  0.0000  0.0000  0.0000
 1939TMC2  CA2614151   4.870  -2.841  12.784  0.0000  0.0000  0.0000
 1939TMC2  CB2714152   4.497  -2.657  12.844  0.0000  0.0000  0.0000
 1939TMC2  CB2814153   4.780  -3.005  12.616  0.0000  0.0000  0.0000
 1939TMC2  HA2914154   4.710  -2.619  12.987  0.0000  0.0000  0.0000
 1939TMC2  HA3014155   4.544  -2.869  12.679  0.0000  0.0000  0.0000
 1939TMC2  HA3114156   4.965  -2.888  12.761  0.0000  0.0000  0.0000
 1939TMC2  HO3214157   4.858  -2.621  13.088  0.0000  0.0000  0.0000
 1939TMC2   O3314158   5.085  -2.774  12.948  0.0000  0.0000  0.0000
 1939TMC2   O3414159   4.493  -2.569  12.929  0.0000  0.0000  0.0000
 1939TMC2   O3514160   4.702  -3.095  12.621  0.0000  0.0000  0.0000
 1939TMC2  OH3614161   4.949  -2.655  13.091  0.0000  0.0000  0.0000
 1940MPD1   CA114162   0.438   0.604  13.165  0.0000  0.0000  0.0000
 1940MPD1   CA214163   0.364   0.724  13.187  0.0000  0.0000  0.0000
 1940MPD1   CA314164   0.436   0.840  13.221  0.0000  0.0000  0.0000
 1940MPD1   CA414165   0.576   0.845  13.216  0.0000  0.0000  0.0000
 1940MPD1   CA514166   0.647   0.726  13.189  0.0000  0.0000  0.0000
 1940MPD1   CA614167   0.580   0.610  13.167  0.0000  0.0000  0.0000
 1940MPD1  HA1014168   0.636   0.518  13.156  0.0000  0.0000  0.0000
 1940MPD1   HA714169   0.255   0.719  13.185  0.0000  0.0000  0.0000
 1940MPD1   HA814170   0.630   0.930  13.256  0.0000  0.0000  0.0000
 1940MPD1   HA914171   0.755   0.735  13.198  0.0000  0.0000  0.0000
 1940MPD1  HN1114172   0.411   0.425  13.063  0.0000  0.0000  0.0000
 1940MPD1  HN1214173   0.420   1.029  13.292  0.0000  0.0000  0.0000
 1940MPD1  HN1314174   0.278   0.949  13.286  0.0000  0.0000  0.0000
 1940MPD1  NB1414175   0.370   0.483  13.135  0.0000  0.0000  0.0000
 1940MPD1  NH1514176   0.369   0.959  13.241  0.0000  0.0000  0.0000
 1941MPD1   CA114177   5.193  -0.642  13.146  0.0000  0.0000  0.0000
 1941MPD1   CA214178   5.230  -0.523  13.209  0.0000  0.0000  0.0000
 1941MPD1   CA314179   5.286  -0.532  13.339  0.0000  0.0000  0.0000
 1941MPD1   CA414180   5.296  -0.658  13.403  0.0000  0.0000  0.0000
 1941MPD1   CA514181   5.266  -0.774  13.329  0.0000  0.0000  0.0000
 1941MPD1   CA614182   5.216  -0.769  13.202  0.0000  0.0000  0.0000
 1941MPD1  HA1014183   5.180  -0.859  13.152  0.0000  0.0000  0.0000
 1941MPD1   HA714184   5.215  -0.429  13.157  0.0000  0.0000  0.0000
 1941MPD1   HA814185   5.347  -0.666  13.498  0.0000  0.0000  0.0000
 1941MPD1   HA914186   5.308  -0.864  13.373  0.0000  0.0000  0.0000
 1941MPD1  HN1114187   5.177  -0.713  12.956  0.0000  0.0000  0.0000
 1941MPD1  HN1214188   5.409  -0.448  13.465  0.0000  0.0000  0.0000
 1941MPD1  HN1314189   5.360  -0.336  13.363  0.0000  0.0000  0.0000
 1941MPD1  NB1414190   5.143  -0.636  13.013  0.0000  0.0000  0.0000
 1941MPD1  NH1514191   5.328  -0.420  13.411  0.0000  0.0000  0.0000
 1942MPD1   CA114192   3.186  -1.718  11.303  0.0000  0.0000  0.0000
 1942MPD1   CA214193   3.294  -1.739  11.400  0.0000  0.0000  0.0000
 1942MPD1   CA314194   3.419  -1.678  11.378  0.0000  0.0000  0.0000
 1942MPD1   CA414195   3.445  -1.601  11.266  0.0000  0.0000  0.0000
 1942MPD1   CA514196   3.344  -1.580  11.176  0.0000  0.0000  0.0000
 1942MPD1   CA614197   3.212  -1.634  11.191  0.0000  0.0000  0.0000
 1942MPD1  HA1014198   3.137  -1.611  11.116  0.0000  0.0000  0.0000
 1942MPD1   HA714199   3.275  -1.800  11.488  0.0000  0.0000  0.0000
 1942MPD1   HA814200   3.543  -1.553  11.265  0.0000  0.0000  0.0000
 1942MPD1   HA914201   3.360  -1.516  11.089  0.0000  0.0000  0.0000
 1942MPD1  HN1114202   3.063  -1.878  11.329  0.0000  0.0000  0.0000
 1942MPD1  HN1214203   3.617  -1.667  11.461  0.0000  0.0000  0.0000
 1942MPD1  HN1314204   3.501  -1.749  11.555  0.0000  0.0000  0.0000
 1942MPD1  NB1414205   3.058  -1.777  11.323  0.0000  0.0000  0.0000
 1942MPD1  NH1514206   3.521  -1.698  11.470  0.0000  0.0000  0.0000
 1943MPD1   CA114207   2.242   1.429  11.198  0.0000  0.0000  0.0000
 1943MPD1   CA214208   2.129   1.374  11.140  0.0000  0.0000  0.0000
 1943MPD1   CA314209   2.139   1.274  11.040  0.0000  0.0000  0.0000
 1943MPD1   CA414210   2.267   1.233  10.999  0.0000  0.0000  0.0000
 1943MPD1   CA514211   2.386   1.288  11.053  0.0000  0.0000  0.0000
 1943MPD1   CA614212   2.368   1.372  11.161  0.0000  0.0000  0.0000
 1943MPD1  HA1014213   2.463   1.408  11.201  0.0000  0.0000  0.0000
 1943MPD1   HA714214   2.028   1.398  11.174  0.0000  0.0000  0.0000
 1943MPD1   HA814215   2.290   1.160  10.921  0.0000  0.0000  0.0000
 1943MPD1   HA914216   2.484   1.261  11.016  0.0000  0.0000  0.0000
 1943MPD1  HN1114217   2.151   1.513  11.359  0.0000  0.0000  0.0000
 1943MPD1  HN1214218   1.948   1.273  10.950  0.0000  0.0000  0.0000
 1943MPD1  HN1314219   2.055   1.174  10.874  0.0000  0.0000  0.0000
 1943MPD1  NB1414220   2.228   1.531  11.296  0.0000  0.0000  0.0000
 1943MPD1  NH1514221   2.035   1.222  10.960  0.0000  0.0000  0.0000
 1944MPD1   CA114222   2.543   1.822  11.986  0.0000  0.0000  0.0000
 1944MPD1   CA214223   2.544   1.911  12.086  0.0000  0.0000  0.0000
 1944MPD1   CA314224   2.634   1.913  12.191  0.0000  0.0000  0.0000
 1944MPD1   CA414225   2.735   1.817  12.195  0.0000  0.0000  0.0000
 1944MPD1   CA514226   2.738   1.725  12.096  0.0000  0.0000  0.0000
 1944MPD1   CA614227   2.643   1.720  11.991  0.0000  0.0000  0.0000
 1944MPD1  HA1014228   2.667   1.646  11.915  0.0000  0.0000  0.0000
 1944MPD1   HA714229   2.477   1.997  12.084  0.0000  0.0000  0.0000
 1944MPD1   HA814230   2.821   1.818  12.261  0.0000  0.0000  0.0000
 1944MPD1   HA914231   2.822   1.657  12.096  0.0000  0.0000  0.0000
 1944MPD1  HN1114232   2.354   1.813  11.893  0.0000  0.0000  0.0000
 1944MPD1  HN1214233   2.689   1.993  12.372  0.0000  0.0000  0.0000
 1944MPD1  HN1314234   2.542   2.054  12.309  0.0000  0.0000  0.0000
 1944MPD1  NB1414235   2.453   1.821  11.875  0.0000  0.0000  0.0000
 1944MPD1  NH1514236   2.631   2.010  12.291  0.0000  0.0000  0.0000
 1945MPD2  CA1614237   5.368  -1.518  12.236  0.0000  0.0000  0.0000
 1945MPD2  CA1714238   5.358  -1.534  12.376  0.0000  0.0000  0.0000
 1945MPD2  CA1814239   5.273  -1.446  12.455  0.0000  0.0000  0.0000
 1945MPD2  CA1914240   5.232  -1.327  12.392  0.0000  0.0000  0.0000
 1945MPD2  CA2014241   5.250  -1.300  12.257  0.0000  0.0000  0.0000
 1945MPD2  CA2114242   5.313  -1.396  12.179  0.0000  0.0000  0.0000
 1945MPD2  HA2214243   5.412  -1.621  12.412  0.0000  0.0000  0.0000
 1945MPD2  HA2314244   5.178  -1.250  12.448  0.0000  0.0000  0.0000
 1945MPD2  HA2414245   5.216  -1.207  12.211  0.0000  0.0000  0.0000
 1945MPD2  HA2514246   5.321  -1.381  12.071  0.0000  0.0000  0.0000
 1945MPD2  HN2614247   5.519  -1.582  12.116  0.0000  0.0000  0.0000
 1945MPD2  HN2714248   5.189  -1.395  12.633  0.0000  0.0000  0.0000
 1945MPD2  NB2814249   5.429  -1.615  12.150  0.0000  0.0000  0.0000
 1945MPD2  NB2914250   5.246  -1.468  12.592  0.0000  0.0000  0.0000
 1946MPD1   CA114251   3.683  -1.673  13.694  0.0000  0.0000  0.0000
 1946MPD1   CA214252   3.811  -1.629  13.739  0.0000  0.0000  0.0000
 1946MPD1   CA314253   3.923  -1.675  13.673  0.0000  0.0000  0.0000
 1946MPD1   CA414254   3.911  -1.778  13.579  0.0000  0.0000  0.0000
 1946MPD1   CA514255   3.789  -1.835  13.548  0.0000  0.0000  0.0000
 1946MPD1   CA614256   3.675  -1.780  13.601  0.0000  0.0000  0.0000
 1946MPD1  HA1014257   3.580  -1.812  13.561  0.0000  0.0000  0.0000
 1946MPD1   HA714258   3.817  -1.569  13.830  0.0000  0.0000  0.0000
 1946MPD1   HA814259   4.004  -1.798  13.527  0.0000  0.0000  0.0000
 1946MPD1   HA914260   3.788  -1.910  13.469  0.0000  0.0000  0.0000
 1946MPD1  HN1114261   3.495  -1.683  13.779  0.0000  0.0000  0.0000
 1946MPD1  HN1214262   4.057  -1.565  13.786  0.0000  0.0000  0.0000
 1946MPD1  HN1314263   4.124  -1.693  13.697  0.0000  0.0000  0.0000
 1946MPD1  NB1414264   3.566  -1.618  13.747  0.0000  0.0000  0.0000
 1946MPD1  NH1514265   4.047  -1.629  13.708  0.0000  0.0000  0.0000
 1947MPD1   CA114266   2.227  -1.031  11.719  0.0000  0.0000  0.0000
 1947MPD1   CA214267   2.166  -0.904  11.692  0.0000  0.0000  0.0000
 1947MPD1   CA314268   2.251  -0.790  11.673  0.0000  0.0000  0.0000
 1947MPD1   CA414269   2.387  -0.797  11.689  0.0000  0.0000  0.0000
 1947MPD1   CA514270   2.438  -0.918  11.720  0.0000  0.0000  0.0000
 1947MPD1   CA614271   2.362  -1.036  11.746  0.0000  0.0000  0.0000
 1947MPD1  HA1014272   2.414  -1.128  11.770  0.0000  0.0000  0.0000
 1947MPD1   HA714273   2.057  -0.898  11.684  0.0000  0.0000  0.0000
 1947MPD1   HA814274   2.459  -0.718  11.669  0.0000  0.0000  0.0000
 1947MPD1   HA914275   2.544  -0.923  11.741  0.0000  0.0000  0.0000
 1947MPD1  HN1114276   2.052  -1.138  11.688  0.0000  0.0000  0.0000
 1947MPD1  HN1214277   2.252  -0.590  11.626  0.0000  0.0000  0.0000
 1947MPD1  HN1314278   2.092  -0.659  11.632  0.0000  0.0000  0.0000
 1947MPD1  NB1414279   2.149  -1.154  11.714  0.0000  0.0000  0.0000
 1947MPD1  NH1514280   2.192  -0.672  11.631  0.0000  0.0000  0.0000
 1948MPD2  CA1614281   5.540   2.101  13.494  0.0000  0.0000  0.0000
 1948MPD2  CA1714282   5.449   1.997  13.521  0.0000  0.0000  0.0000
 1948MPD2  CA1814283   5.312   2.021  13.524  0.0000  0.0000  0.0000
 1948MPD2  CA1914284   5.264   2.151  13.514  0.0000  0.0000  0.0000
 1948MPD2  CA2014285   5.354   2.256  13.493  0.0000  0.0000  0.0000
 1948MPD2  CA2114286   5.493   2.232  13.484  0.0000  0.0000  0.0000
 1948MPD2  HA2214287   5.481   1.894  13.536  0.0000  0.0000  0.0000
 1948MPD2  HA2314288   5.162   2.188  13.518  0.0000  0.0000  0.0000
 1948MPD2  HA2414289   5.324   2.360  13.485  0.0000  0.0000  0.0000
 1948MPD2  HA2514290   5.559   2.316  13.464  0.0000  0.0000  0.0000
 1948MPD2  HN2614291   5.695   1.981  13.529  0.0000  0.0000  0.0000
 1948MPD2  HN2714292   5.240   1.865  13.643  0.0000  0.0000  0.0000
 1948MPD2  NB2814293   5.679   2.074  13.493  0.0000  0.0000  0.0000
 1948MPD2  NB2914294   5.226   1.915  13.556  0.0000  0.0000  0.0000
 1949MPD1   CA114295   0.419  -2.268  12.747  0.0000  0.0000  0.0000
 1949MPD1   CA214296   0.307  -2.234  12.834  0.0000  0.0000  0.0000
 1949MPD1   CA314297   0.189  -2.306  12.829  0.0000  0.0000  0.0000
 1949MPD1   CA414298   0.170  -2.411  12.740  0.0000  0.0000  0.0000
 1949MPD1   CA514299   0.274  -2.437  12.645  0.0000  0.0000  0.0000
 1949MPD1   CA614300   0.387  -2.357  12.641  0.0000  0.0000  0.0000
 1949MPD1  HA1014301   0.462  -2.393  12.571  0.0000  0.0000  0.0000
 1949MPD1   HA714302   0.313  -2.155  12.908  0.0000  0.0000  0.0000
 1949MPD1   HA814303   0.080  -2.471  12.737  0.0000  0.0000  0.0000
 1949MPD1   HA914304   0.269  -2.510  12.566  0.0000  0.0000  0.0000
 1949MPD1  HN1114305   0.608  -2.219  12.687  0.0000  0.0000  0.0000
 1949MPD1  HN1214306  -0.002  -2.323  12.904  0.0000  0.0000  0.0000
 1949MPD1  HN1314307   0.066  -2.179  12.941  0.0000  0.0000  0.0000
 1949MPD1  NB1414308   0.535  -2.185  12.748  0.0000  0.0000  0.0000
 1949MPD1  NH1514309   0.086  -2.276  12.921  0.0000  0.0000  0.0000
 1950MPD2  CA1614310   3.422  -1.047  10.569  0.0000  0.0000  0.0000
 1950MPD2  CA1714311   3.454  -0.914  10.534  0.0000  0.0000  0.0000
 1950MPD2  CA1814312   3.582  -0.887  10.484  0.0000  0.0000  0.0000
 1950MPD2  CA1914313   3.674  -0.992  10.468  0.0000  0.0000  0.0000
 1950MPD2  CA2014314   3.644  -1.119  10.515  0.0000  0.0000  0.0000
 1950MPD2  CA2114315   3.516  -1.153  10.557  0.0000  0.0000  0.0000
 1950MPD2  HA2214316   3.387  -0.832  10.557  0.0000  0.0000  0.0000
 1950MPD2  HA2314317   3.773  -0.962  10.433  0.0000  0.0000  0.0000
 1950MPD2  HA2414318   3.731  -1.184  10.517  0.0000  0.0000  0.0000
 1950MPD2  HA2514319   3.504  -1.256  10.589  0.0000  0.0000  0.0000
 1950MPD2  HN2614320   3.230  -1.104  10.562  0.0000  0.0000  0.0000
 1950MPD2  HN2714321   3.553  -0.730  10.360  0.0000  0.0000  0.0000
 1950MPD2  NB2814322   3.299  -1.076  10.632  0.0000  0.0000  0.0000
 1950MPD2  NB2914323   3.610  -0.757  10.439  0.0000  0.0000  0.0000
 1951MPD2  CA1614324   1.546   1.547  11.668  0.0000  0.0000  0.0000
 1951MPD2  CA1714325   1.685   1.567  11.636  0.0000  0.0000  0.0000
 1951MPD2  CA1814326   1.761   1.680  11.675  0.0000  0.0000  0.0000
 1951MPD2  CA1914327   1.691   1.790  11.729  0.0000  0.0000  0.0000
 1951MPD2  CA2014328   1.553   1.773  11.766  0.0000  0.0000  0.0000
 1951MPD2  CA2114329   1.484   1.654  11.736  0.0000  0.0000  0.0000
 1951MPD2  HA2214330   1.750   1.489  11.597  0.0000  0.0000  0.0000
 1951MPD2  HA2314331   1.739   1.885  11.752  0.0000  0.0000  0.0000
 1951MPD2  HA2414332   1.504   1.856  11.816  0.0000  0.0000  0.0000
 1951MPD2  HA2514333   1.381   1.637  11.767  0.0000  0.0000  0.0000
 1951MPD2  HN2614334   1.405   1.415  11.720  0.0000  0.0000  0.0000
 1951MPD2  HN2714335   1.915   1.647  11.544  0.0000  0.0000  0.0000
 1951MPD2  NB2814336   1.481   1.425  11.653  0.0000  0.0000  0.0000
 1951MPD2  NB2914337   1.894   1.689  11.634  0.0000  0.0000  0.0000
 1952MPD2  CA1614338   3.685  -2.208  11.673  0.0000  0.0000  0.0000
 1952MPD2  CA1714339   3.606  -2.195  11.788  0.0000  0.0000  0.0000
 1952MPD2  CA1814340   3.562  -2.315  11.850  0.0000  0.0000  0.0000
 1952MPD2  CA1914341   3.607  -2.439  11.799  0.0000  0.0000  0.0000
 1952MPD2  CA2014342   3.673  -2.448  11.680  0.0000  0.0000  0.0000
 1952MPD2  CA2114343   3.718  -2.330  11.614  0.0000  0.0000  0.0000
 1952MPD2  HA2214344   3.581  -2.097  11.826  0.0000  0.0000  0.0000
 1952MPD2  HA2314345   3.601  -2.528  11.860  0.0000  0.0000  0.0000
 1952MPD2  HA2414346   3.704  -2.544  11.641  0.0000  0.0000  0.0000
 1952MPD2  HA2514347   3.784  -2.333  11.529  0.0000  0.0000  0.0000
 1952MPD2  HN2614348   3.694  -2.115  11.495  0.0000  0.0000  0.0000
 1952MPD2  HN2714349   3.397  -2.315  11.969  0.0000  0.0000  0.0000
 1952MPD2  NB2814350   3.718  -2.104  11.593  0.0000  0.0000  0.0000
 1952MPD2  NB2914351   3.498  -2.304  11.975  0.0000  0.0000  0.0000
 1953MPD2  CA1614352   5.209   0.693  13.605  0.0000  0.0000  0.0000
 1953MPD2  CA1714353   5.078   0.663  13.570  0.0000  0.0000  0.0000
 1953MPD2  CA1814354   4.967   0.699  13.651  0.0000  0.0000  0.0000
 1953MPD2  CA1914355   4.998   0.760  13.776  0.0000  0.0000  0.0000
 1953MPD2  CA2014356   5.134   0.769  13.816  0.0000  0.0000  0.0000
 1953MPD2  CA2114357   5.245   0.743  13.730  0.0000  0.0000  0.0000
 1953MPD2  HA2214358   5.056   0.629  13.469  0.0000  0.0000  0.0000
 1953MPD2  HA2314359   4.913   0.787  13.839  0.0000  0.0000  0.0000
 1953MPD2  HA2414360   5.162   0.811  13.912  0.0000  0.0000  0.0000
 1953MPD2  HA2514361   5.346   0.773  13.756  0.0000  0.0000  0.0000
 1953MPD2  HN2614362   5.271   0.744  13.428  0.0000  0.0000  0.0000
 1953MPD2  HN2714363   4.827   0.589  13.551  0.0000  0.0000  0.0000
 1953MPD2  NB2814364   5.304   0.687  13.505  0.0000  0.0000  0.0000
 1953MPD2  NB2914365   4.831   0.671  13.611  0.0000  0.0000  0.0000
 1954MPD1   CA114366   1.129  -2.417  12.452  0.0000  0.0000  0.0000
 1954MPD1   CA214367   1.197  -2.537  12.425  0.0000  0.0000  0.0000
 1954MPD1   CA314368   1.290  -2.549  12.323  0.0000  0.0000  0.0000
 1954MPD1   CA414369   1.321  -2.443  12.246  0.0000  0.0000  0.0000
 1954MPD1   CA514370   1.266  -2.318  12.275  0.0000  0.0000  0.0000
 1954MPD1   CA614371   1.165  -2.310  12.370  0.0000  0.0000  0.0000
 1954MPD1  HA1014372   1.110  -2.218  12.385  0.0000  0.0000  0.0000
 1954MPD1   HA714373   1.175  -2.620  12.491  0.0000  0.0000  0.0000
 1954MPD1   HA814374   1.387  -2.454  12.160  0.0000  0.0000  0.0000
 1954MPD1   HA914375   1.298  -2.231  12.218  0.0000  0.0000  0.0000
 1954MPD1  HN1114376   0.955  -2.447  12.539  0.0000  0.0000  0.0000
 1954MPD1  HN1214377   1.338  -2.747  12.360  0.0000  0.0000  0.0000
 1954MPD1  HN1314378   1.452  -2.678  12.266  0.0000  0.0000  0.0000
 1954MPD1  NB1414379   1.043  -2.403  12.563  0.0000  0.0000  0.0000
 1954MPD1  NH1514380   1.355  -2.672  12.295  0.0000  0.0000  0.0000
 1955MPD1   CA114381   4.552   0.059  11.898  0.0000  0.0000  0.0000
 1955MPD1   CA214382   4.642   0.156  11.951  0.0000  0.0000  0.0000
 1955MPD1   CA314383   4.677   0.276  11.879  0.0000  0.0000  0.0000
 1955MPD1   CA414384   4.624   0.289  11.750  0.0000  0.0000  0.0000
 1955MPD1   CA514385   4.539   0.192  11.702  0.0000  0.0000  0.0000
 1955MPD1   CA614386   4.499   0.083  11.771  0.0000  0.0000  0.0000
 1955MPD1  HA1014387   4.423   0.023  11.721  0.0000  0.0000  0.0000
 1955MPD1   HA714388   4.698   0.135  12.042  0.0000  0.0000  0.0000
 1955MPD1   HA814389   4.665   0.369  11.688  0.0000  0.0000  0.0000
 1955MPD1   HA914390   4.496   0.207  11.603  0.0000  0.0000  0.0000
 1955MPD1  HN1114391   4.601  -0.126  11.991  0.0000  0.0000  0.0000
 1955MPD1  HN1214392   4.768   0.456  11.881  0.0000  0.0000  0.0000
 1955MPD1  HN1314393   4.796   0.366  12.019  0.0000  0.0000  0.0000
 1955MPD1  NB1414394   4.528  -0.058  11.972  0.0000  0.0000  0.0000
 1955MPD1  NH1514395   4.769   0.363  11.921  0.0000  0.0000  0.0000
 1956MPD2  CA1614396   4.358  -0.068  12.557  0.0000  0.0000  0.0000
 1956MPD2  CA1714397   4.365   0.064  12.611  0.0000  0.0000  0.0000
 1956MPD2  CA1814398   4.486   0.138  12.618  0.0000  0.0000  0.0000
 1956MPD2  CA1914399   4.607   0.081  12.570  0.0000  0.0000  0.0000
 1956MPD2  CA2014400   4.604  -0.051  12.525  0.0000  0.0000  0.0000
 1956MPD2  CA2114401   4.484  -0.124  12.527  0.0000  0.0000  0.0000
 1956MPD2  HA2214402   4.270   0.115  12.623  0.0000  0.0000  0.0000
 1956MPD2  HA2314403   4.702   0.126  12.596  0.0000  0.0000  0.0000
 1956MPD2  HA2414404   4.693  -0.104  12.495  0.0000  0.0000  0.0000
 1956MPD2  HA2514405   4.488  -0.223  12.481  0.0000  0.0000  0.0000
 1956MPD2  HN2614406   4.161  -0.107  12.617  0.0000  0.0000  0.0000
 1956MPD2  HN2714407   4.395   0.296  12.703  0.0000  0.0000  0.0000
 1956MPD2  NB2814408   4.230  -0.133  12.548  0.0000  0.0000  0.0000
 1956MPD2  NB2914409   4.484   0.274  12.660  0.0000  0.0000  0.0000
 1957MPD1   CA114410   1.791  -2.426  12.692  0.0000  0.0000  0.0000
 1957MPD1   CA214411   1.908  -2.414  12.767  0.0000  0.0000  0.0000
 1957MPD1   CA314412   2.031  -2.475  12.729  0.0000  0.0000  0.0000
 1957MPD1   CA414413   2.026  -2.564  12.615  0.0000  0.0000  0.0000
 1957MPD1   CA514414   1.914  -2.562  12.540  0.0000  0.0000  0.0000
 1957MPD1   CA614415   1.795  -2.495  12.574  0.0000  0.0000  0.0000
 1957MPD1  HA1014416   1.713  -2.503  12.503  0.0000  0.0000  0.0000
 1957MPD1   HA714417   1.907  -2.348  12.853  0.0000  0.0000  0.0000
 1957MPD1   HA814418   2.115  -2.622  12.594  0.0000  0.0000  0.0000
 1957MPD1   HA914419   1.916  -2.627  12.453  0.0000  0.0000  0.0000
 1957MPD1  HN1114420   1.680  -2.276  12.789  0.0000  0.0000  0.0000
 1957MPD1  HN1214421   2.194  -2.557  12.804  0.0000  0.0000  0.0000
 1957MPD1  HN1314422   2.130  -2.432  12.898  0.0000  0.0000  0.0000
 1957MPD1  NB1414423   1.668  -2.355  12.727  0.0000  0.0000  0.0000
 1957MPD1  NH1514424   2.145  -2.469  12.805  0.0000  0.0000  0.0000
 1958MPD1   CA114425   0.051  -0.260  13.445  0.0000  0.0000  0.0000
 1958MPD1   CA214426   0.012  -0.230  13.578  0.0000  0.0000  0.0000
 1958MPD1   CA314427  -0.037  -0.335  13.662  0.0000  0.0000  0.0000
 1958MPD1   CA414428  -0.029  -0.469  13.622  0.0000  0.0000  0.0000
 1958MPD1   CA514429   0.025  -0.499  13.497  0.0000  0.0000  0.0000
 1958MPD1   CA614430   0.059  -0.394  13.412  0.0000  0.0000  0.0000
 1958MPD1  HA1014431   0.101  -0.417  13.315  0.0000  0.0000  0.0000
 1958MPD1   HA714432   0.024  -0.127  13.613  0.0000  0.0000  0.0000
 1958MPD1   HA814433  -0.059  -0.551  13.687  0.0000  0.0000  0.0000
 1958MPD1   HA914434   0.052  -0.598  13.464  0.0000  0.0000  0.0000
 1958MPD1  HN1114435   0.185  -0.197  13.293  0.0000  0.0000  0.0000
 1958MPD1  HN1214436  -0.132  -0.224  13.813  0.0000  0.0000  0.0000
 1958MPD1  HN1314437  -0.101  -0.389  13.853  0.0000  0.0000  0.0000
 1958MPD1  NB1414438   0.106  -0.165  13.348  0.0000  0.0000  0.0000
 1958MPD1  NH1514439  -0.087  -0.311  13.789  0.0000  0.0000  0.0000
 1959MPD2  CA1614440   2.435  -1.160  11.244  0.0000  0.0000  0.0000
 1959MPD2  CA1714441   2.349  -1.183  11.137  0.0000  0.0000  0.0000
 1959MPD2  CA1814442   2.228  -1.114  11.124  0.0000  0.0000  0.0000
 1959MPD2  CA1914443   2.192  -1.024  11.227  0.0000  0.0000  0.0000
 1959MPD2  CA2014444   2.279  -0.997  11.330  0.0000  0.0000  0.0000
 1959MPD2  CA2114445   2.400  -1.067  11.342  0.0000  0.0000  0.0000
 1959MPD2  HA2214446   2.382  -1.254  11.061  0.0000  0.0000  0.0000
 1959MPD2  HA2314447   2.108  -0.956  11.215  0.0000  0.0000  0.0000
 1959MPD2  HA2414448   2.252  -0.926  11.408  0.0000  0.0000  0.0000
 1959MPD2  HA2514449   2.461  -1.033  11.425  0.0000  0.0000  0.0000
 1959MPD2  HN2614450   2.642  -1.166  11.282  0.0000  0.0000  0.0000
 1959MPD2  HN2714451   2.036  -1.103  11.040  0.0000  0.0000  0.0000
 1959MPD2  NB2814452   2.568  -1.228  11.251  0.0000  0.0000  0.0000
 1959MPD2  NB2914453   2.128  -1.141  11.024  0.0000  0.0000  0.0000
 1960MPD2  CA1614454   1.791  -1.400  11.274  0.0000  0.0000  0.0000
 1960MPD2  CA1714455   1.726  -1.289  11.212  0.0000  0.0000  0.0000
 1960MPD2  CA1814456   1.689  -1.303  11.075  0.0000  0.0000  0.0000
 1960MPD2  CA1914457   1.700  -1.427  11.008  0.0000  0.0000  0.0000
 1960MPD2  CA2014458   1.773  -1.530  11.066  0.0000  0.0000  0.0000
 1960MPD2  CA2114459   1.814  -1.520  11.203  0.0000  0.0000  0.0000
 1960MPD2  HA2214460   1.713  -1.197  11.268  0.0000  0.0000  0.0000
 1960MPD2  HA2314461   1.666  -1.433  10.905  0.0000  0.0000  0.0000
 1960MPD2  HA2414462   1.800  -1.619  11.011  0.0000  0.0000  0.0000
 1960MPD2  HA2514463   1.857  -1.608  11.251  0.0000  0.0000  0.0000
 1960MPD2  HN2614464   1.931  -1.353  11.409  0.0000  0.0000  0.0000
 1960MPD2  HN2714465   1.547  -1.157  11.047  0.0000  0.0000  0.0000
 1960MPD2  NB2814466   1.840  -1.396  11.406  0.0000  0.0000  0.0000
 1960MPD2  NB2914467   1.624  -1.204  11.001  0.0000  0.0000  0.0000
 1961TMC2   C2014468   1.912  -1.379  10.501  0.0000  0.0000  0.0000
 1961TMC2  CA2114469   1.907  -1.309  10.635  0.0000  0.0000  0.0000
 1961TMC2  CA2214470   1.786  -1.277  10.687  0.0000  0.0000  0.0000
 1961TMC2  CA2314471   1.779  -1.214  10.809  0.0000  0.0000  0.0000
 1961TMC2  CA2414472   1.891  -1.189  10.882  0.0000  0.0000  0.0000
 1961TMC2  CA2514473   2.018  -1.220  10.831  0.0000  0.0000  0.0000
 1961TMC2  CA2614474   2.025  -1.290  10.713  0.0000  0.0000  0.0000
 1961TMC2  CB2714475   1.646  -1.182  10.867  0.0000  0.0000  0.0000
 1961TMC2  CB2814476   2.142  -1.219  10.914  0.0000  0.0000  0.0000
 1961TMC2  HA2914477   1.693  -1.301  10.635  0.0000  0.0000  0.0000
 1961TMC2  HA3014478   1.879  -1.147  10.982  0.0000  0.0000  0.0000
 1961TMC2  HA3114479   2.119  -1.315  10.665  0.0000  0.0000  0.0000
 1961TMC2  HO3214480   2.058  -1.466  10.582  0.0000  0.0000  0.0000
 1961TMC2   O3314481   1.818  -1.379  10.428  0.0000  0.0000  0.0000
 1961TMC2   O3414482   1.565  -1.131  10.796  0.0000  0.0000  0.0000
 1961TMC2   O3514483   2.247  -1.276  10.873  0.0000  0.0000  0.0000
 1961TMC2  OH3614484   2.019  -1.455  10.493  0.0000  0.0000  0.0000
 1962MPD2  CA1614485   3.030  -2.456  13.445  0.0000  0.0000  0.0000
 1962MPD2  CA1714486   2.907  -2.516  13.399  0.0000  0.0000  0.0000
 1962MPD2  CA1814487   2.876  -2.653  13.408  0.0000  0.0000  0.0000
 1962MPD2  CA1914488   2.972  -2.734  13.479  0.0000  0.0000  0.0000
 1962MPD2  CA2014489   3.089  -2.672  13.533  0.0000  0.0000  0.0000
 1962MPD2  CA2114490   3.123  -2.543  13.508  0.0000  0.0000  0.0000
 1962MPD2  HA2214491   2.832  -2.458  13.347  0.0000  0.0000  0.0000
 1962MPD2  HA2314492   2.946  -2.836  13.503  0.0000  0.0000  0.0000
 1962MPD2  HA2414493   3.154  -2.741  13.586  0.0000  0.0000  0.0000
 1962MPD2  HA2514494   3.220  -2.508  13.543  0.0000  0.0000  0.0000
 1962MPD2  HN2614495   3.165  -2.301  13.420  0.0000  0.0000  0.0000
 1962MPD2  HN2714496   2.714  -2.754  13.457  0.0000  0.0000  0.0000
 1962MPD2  NB2814497   3.065  -2.322  13.425  0.0000  0.0000  0.0000
 1962MPD2  NB2914498   2.753  -2.707  13.376  0.0000  0.0000  0.0000
 1963MPD2  CA1614499   3.490  -2.512  13.185  0.0000  0.0000  0.0000
 1963MPD2  CA1714500   3.352  -2.519  13.166  0.0000  0.0000  0.0000
 1963MPD2  CA1814501   3.298  -2.587  13.050  0.0000  0.0000  0.0000
 1963MPD2  CA1914502   3.379  -2.639  12.948  0.0000  0.0000  0.0000
 1963MPD2  CA2014503   3.518  -2.628  12.965  0.0000  0.0000  0.0000
 1963MPD2  CA2114504   3.572  -2.568  13.084  0.0000  0.0000  0.0000
 1963MPD2  HA2214505   3.281  -2.473  13.234  0.0000  0.0000  0.0000
 1963MPD2  HA2314506   3.342  -2.698  12.864  0.0000  0.0000  0.0000
 1963MPD2  HA2414507   3.576  -2.657  12.878  0.0000  0.0000  0.0000
 1963MPD2  HA2514508   3.680  -2.554  13.092  0.0000  0.0000  0.0000
 1963MPD2  HN2614509   3.648  -2.489  13.317  0.0000  0.0000  0.0000
 1963MPD2  HN2714510   3.129  -2.655  13.133  0.0000  0.0000  0.0000
 1963MPD2  NB2814511   3.554  -2.457  13.298  0.0000  0.0000  0.0000
 1963MPD2  NB2914512   3.159  -2.607  13.049  0.0000  0.0000  0.0000
 1964TMC2   C2014513   2.596  -2.497  12.833  0.0000  0.0000  0.0000
 1964TMC2  CA2114514   2.695  -2.568  12.910  0.0000  0.0000  0.0000
 1964TMC2  CA2214515   2.831  -2.562  12.881  0.0000  0.0000  0.0000
 1964TMC2  CA2314516   2.923  -2.610  12.973  0.0000  0.0000  0.0000
 1964TMC2  CA2414517   2.880  -2.654  13.095  0.0000  0.0000  0.0000
 1964TMC2  CA2514518   2.745  -2.666  13.125  0.0000  0.0000  0.0000
 1964TMC2  CA2614519   2.650  -2.622  13.034  0.0000  0.0000  0.0000
 1964TMC2  CB2714520   3.068  -2.581  12.945  0.0000  0.0000  0.0000
 1964TMC2  CB2814521   2.682  -2.721  13.254  0.0000  0.0000  0.0000
 1964TMC2  HA2914522   2.873  -2.521  12.790  0.0000  0.0000  0.0000
 1964TMC2  HA3014523   2.949  -2.690  13.170  0.0000  0.0000  0.0000
 1964TMC2  HA3114524   2.545  -2.614  13.059  0.0000  0.0000  0.0000
 1964TMC2  HO3214525   2.714  -2.525  12.691  0.0000  0.0000  0.0000
 1964TMC2   O3314526   2.491  -2.450  12.878  0.0000  0.0000  0.0000
 1964TMC2   O3414527   3.099  -2.543  12.836  0.0000  0.0000  0.0000
 1964TMC2   O3514528   2.574  -2.778  13.260  0.0000  0.0000  0.0000
 1964TMC2  OH3614529   2.631  -2.476  12.705  0.0000  0.0000  0.0000
 1965MPD1   CA114530   1.743   1.030  11.628  0.0000  0.0000  0.0000
 1965MPD1   CA214531   1.872   1.073  11.595  0.0000  0.0000  0.0000
 1965MPD1   CA314532   1.938   1.172  11.671  0.0000  0.0000  0.0000
 1965MPD1   CA414533   1.867   1.233  11.773  0.0000  0.0000  0.0000
 1965MPD1   CA514534   1.731   1.200  11.796  0.0000  0.0000  0.0000
 1965MPD1   CA614535   1.672   1.091  11.731  0.0000  0.0000  0.0000
 1965MPD1  HA1014536   1.570   1.059  11.752  0.0000  0.0000  0.0000
 1965MPD1   HA714537   1.922   1.034  11.506  0.0000  0.0000  0.0000
 1965MPD1   HA814538   1.919   1.299  11.842  0.0000  0.0000  0.0000
 1965MPD1   HA914539   1.670   1.259  11.863  0.0000  0.0000  0.0000
 1965MPD1  HN1114540   1.746   0.894  11.477  0.0000  0.0000  0.0000
 1965MPD1  HN1214541   2.116   1.276  11.707  0.0000  0.0000  0.0000
 1965MPD1  HN1314542   2.118   1.181  11.562  0.0000  0.0000  0.0000
 1965MPD1  NB1414543   1.689   0.919  11.556  0.0000  0.0000  0.0000
 1965MPD1  NH1514544   2.068   1.211  11.645  0.0000  0.0000  0.0000
 1966MPD1   CA114545   0.717  -0.207  12.201  0.0000  0.0000  0.0000
 1966MPD1   CA214546   0.755  -0.150  12.084  0.0000  0.0000  0.0000
 1966MPD1   CA314547   0.670  -0.143  11.976  0.0000  0.0000  0.0000
 1966MPD1   CA414548   0.545  -0.194  11.984  0.0000  0.0000  0.0000
 1966MPD1   CA514549   0.500  -0.260  12.102  0.0000  0.0000  0.0000
 1966MPD1   CA614550   0.588  -0.265  12.213  0.0000  0.0000  0.0000
 1966MPD1  HA1014551   0.565  -0.322  12.302  0.0000  0.0000  0.0000
 1966MPD1   HA714552   0.857  -0.114  12.078  0.0000  0.0000  0.0000
 1966MPD1   HA814553   0.484  -0.192  11.894  0.0000  0.0000  0.0000
 1966MPD1   HA914554   0.405  -0.312  12.110  0.0000  0.0000  0.0000
 1966MPD1  HN1114555   0.866  -0.310  12.298  0.0000  0.0000  0.0000
 1966MPD1  HN1214556   0.663  -0.056  11.790  0.0000  0.0000  0.0000
 1966MPD1  HN1314557   0.821  -0.070  11.841  0.0000  0.0000  0.0000
 1966MPD1  NB1414558   0.812  -0.224  12.305  0.0000  0.0000  0.0000
 1966MPD1  NH1514559   0.726  -0.102  11.854  0.0000  0.0000  0.0000
 1967MPD1   CA114560   1.083  -1.584  13.014  0.0000  0.0000  0.0000
 1967MPD1   CA214561   1.084  -1.583  13.150  0.0000  0.0000  0.0000
 1967MPD1   CA314562   1.137  -1.478  13.225  0.0000  0.0000  0.0000
 1967MPD1   CA414563   1.176  -1.364  13.155  0.0000  0.0000  0.0000
 1967MPD1   CA514564   1.183  -1.369  13.014  0.0000  0.0000  0.0000
 1967MPD1   CA614565   1.138  -1.474  12.944  0.0000  0.0000  0.0000
 1967MPD1  HA1014566   1.141  -1.479  12.835  0.0000  0.0000  0.0000
 1967MPD1   HA714567   1.048  -1.674  13.198  0.0000  0.0000  0.0000
 1967MPD1   HA814568   1.219  -1.283  13.212  0.0000  0.0000  0.0000
 1967MPD1   HA914569   1.223  -1.287  12.956  0.0000  0.0000  0.0000
 1967MPD1  HN1114570   1.108  -1.751  12.887  0.0000  0.0000  0.0000
 1967MPD1  HN1214571   1.117  -1.575  13.405  0.0000  0.0000  0.0000
 1967MPD1  HN1314572   1.153  -1.403  13.415  0.0000  0.0000  0.0000
 1967MPD1  NB1414573   1.037  -1.698  12.936  0.0000  0.0000  0.0000
 1967MPD1  NH1514574   1.152  -1.490  13.363  0.0000  0.0000  0.0000
 1968MPD2  CA1614575   4.465   1.172  13.387  0.0000  0.0000  0.0000
 1968MPD2  CA1714576   4.547   1.261  13.450  0.0000  0.0000  0.0000
 1968MPD2  CA1814577   4.672   1.297  13.393  0.0000  0.0000  0.0000
 1968MPD2  CA1914578   4.706   1.237  13.265  0.0000  0.0000  0.0000
 1968MPD2  CA2014579   4.616   1.147  13.201  0.0000  0.0000  0.0000
 1968MPD2  CA2114580   4.496   1.122  13.264  0.0000  0.0000  0.0000
 1968MPD2  HA2214581   4.516   1.295  13.548  0.0000  0.0000  0.0000
 1968MPD2  HA2314582   4.798   1.271  13.218  0.0000  0.0000  0.0000
 1968MPD2  HA2414583   4.633   1.110  13.100  0.0000  0.0000  0.0000
 1968MPD2  HA2514584   4.422   1.062  13.211  0.0000  0.0000  0.0000
 1968MPD2  HN2614585   4.298   1.051  13.385  0.0000  0.0000  0.0000
 1968MPD2  HN2714586   4.760   1.371  13.556  0.0000  0.0000  0.0000
 1968MPD2  NB2814587   4.339   1.126  13.439  0.0000  0.0000  0.0000
 1968MPD2  NB2914588   4.763   1.386  13.456  0.0000  0.0000  0.0000
 1969MPD1   CA114589   1.295  -0.267  11.184  0.0000  0.0000  0.0000
 1969MPD1   CA214590   1.352  -0.292  11.061  0.0000  0.0000  0.0000
 1969MPD1   CA314591   1.469  -0.227  11.016  0.0000  0.0000  0.0000
 1969MPD1   CA414592   1.518  -0.114  11.092  0.0000  0.0000  0.0000
 1969MPD1   CA514593   1.473  -0.100  11.219  0.0000  0.0000  0.0000
 1969MPD1   CA614594   1.359  -0.174  11.268  0.0000  0.0000  0.0000
 1969MPD1  HA1014595   1.332  -0.154  11.371  0.0000  0.0000  0.0000
 1969MPD1   HA714596   1.304  -0.373  11.006  0.0000  0.0000  0.0000
 1969MPD1   HA814597   1.597  -0.053  11.049  0.0000  0.0000  0.0000
 1969MPD1   HA914598   1.524  -0.028  11.283  0.0000  0.0000  0.0000
 1969MPD1  HN1114599   1.173  -0.418  11.193  0.0000  0.0000  0.0000
 1969MPD1  HN1214600   1.618  -0.209  10.879  0.0000  0.0000  0.0000
 1969MPD1  HN1314601   1.505  -0.333  10.851  0.0000  0.0000  0.0000
 1969MPD1  NB1414602   1.176  -0.321  11.222  0.0000  0.0000  0.0000
 1969MPD1  NH1514603   1.527  -0.246  10.898  0.0000  0.0000  0.0000
 1970MPD1   CA114604   1.658   0.211  13.914  0.0000  0.0000  0.0000
 1970MPD1   CA214605   1.717   0.291  14.012  0.0000  0.0000  0.0000
 1970MPD1   CA314606   1.646   0.349  14.118  0.0000  0.0000  0.0000
 1970MPD1   CA414607   1.510   0.310  14.130  0.0000  0.0000  0.0000
 1970MPD1   CA514608   1.452   0.241  14.024  0.0000  0.0000  0.0000
 1970MPD1   CA614609   1.522   0.191  13.913  0.0000  0.0000  0.0000
 1970MPD1  HA1014610   1.471   0.136  13.835  0.0000  0.0000  0.0000
 1970MPD1   HA714611   1.825   0.299  14.002  0.0000  0.0000  0.0000
 1970MPD1   HA814612   1.440   0.343  14.206  0.0000  0.0000  0.0000
 1970MPD1   HA914613   1.346   0.216  14.033  0.0000  0.0000  0.0000
 1970MPD1  HN1114614   1.795   0.215  13.749  0.0000  0.0000  0.0000
 1970MPD1  HN1214615   1.792   0.467  14.187  0.0000  0.0000  0.0000
 1970MPD1  HN1314616   1.639   0.507  14.242  0.0000  0.0000  0.0000
 1970MPD1  NB1414617   1.743   0.159  13.816  0.0000  0.0000  0.0000
 1970MPD1  NH1514618   1.701   0.432  14.214  0.0000  0.0000  0.0000
 1971MPD1   CA114619   1.248   1.979  13.880  0.0000  0.0000  0.0000
 1971MPD1   CA214620   1.232   1.833  13.882  0.0000  0.0000  0.0000
 1971MPD1   CA314621   1.107   1.776  13.853  0.0000  0.0000  0.0000
 1971MPD1   CA414622   0.998   1.855  13.817  0.0000  0.0000  0.0000
 1971MPD1   CA514623   1.013   1.997  13.819  0.0000  0.0000  0.0000
 1971MPD1   CA614624   1.136   2.056  13.846  0.0000  0.0000  0.0000
 1971MPD1  HA1014625   1.134   2.164  13.858  0.0000  0.0000  0.0000
 1971MPD1   HA714626   1.319   1.772  13.905  0.0000  0.0000  0.0000
 1971MPD1   HA814627   0.900   1.813  13.798  0.0000  0.0000  0.0000
 1971MPD1   HA914628   0.930   2.066  13.807  0.0000  0.0000  0.0000
 1971MPD1  HN1114629   1.452   1.961  13.885  0.0000  0.0000  0.0000
 1971MPD1  HN1214630   1.170   1.584  13.879  0.0000  0.0000  0.0000
 1971MPD1  HN1314631   0.996   1.604  13.844  0.0000  0.0000  0.0000
 1971MPD1  NB1414632   1.379   2.031  13.889  0.0000  0.0000  0.0000
 1971MPD1  NH1514633   1.088   1.641  13.860  0.0000  0.0000  0.0000
 1972MPD2  CA1614634   2.981   1.000  13.299  0.0000  0.0000  0.0000
 1972MPD2  CA1714635   2.916   0.879  13.263  0.0000  0.0000  0.0000
 1972MPD2  CA1814636   2.996   0.779  13.206  0.0000  0.0000  0.0000
 1972MPD2  CA1914637   3.132   0.796  13.173  0.0000  0.0000  0.0000
 1972MPD2  CA2014638   3.188   0.920  13.202  0.0000  0.0000  0.0000
 1972MPD2  CA2114639   3.113   1.021  13.265  0.0000  0.0000  0.0000
 1972MPD2  HA2214640   2.816   0.853  13.297  0.0000  0.0000  0.0000
 1972MPD2  HA2314641   3.191   0.720  13.122  0.0000  0.0000  0.0000
 1972MPD2  HA2414642   3.294   0.933  13.180  0.0000  0.0000  0.0000
 1972MPD2  HA2514643   3.166   1.112  13.291  0.0000  0.0000  0.0000
 1972MPD2  HN2614644   2.868   1.169  13.315  0.0000  0.0000  0.0000
 1972MPD2  HN2714645   2.930   0.631  13.078  0.0000  0.0000  0.0000
 1972MPD2  NB2814646   2.905   1.095  13.374  0.0000  0.0000  0.0000
 1972MPD2  NB2914647   2.939   0.653  13.177  0.0000  0.0000  0.0000
 1973MPD1   CA114648   2.134  -1.181  12.127  0.0000  0.0000  0.0000
 1973MPD1   CA214649   2.179  -1.294  12.197  0.0000  0.0000  0.0000
 1973MPD1   CA314650   2.102  -1.414  12.193  0.0000  0.0000  0.0000
 1973MPD1   CA414651   1.971  -1.409  12.139  0.0000  0.0000  0.0000
 1973MPD1   CA514652   1.928  -1.297  12.071  0.0000  0.0000  0.0000
 1973MPD1   CA614653   2.009  -1.185  12.067  0.0000  0.0000  0.0000
 1973MPD1  HA1014654   1.974  -1.121  11.987  0.0000  0.0000  0.0000
 1973MPD1   HA714655   2.274  -1.281  12.247  0.0000  0.0000  0.0000
 1973MPD1   HA814656   1.905  -1.495  12.140  0.0000  0.0000  0.0000
 1973MPD1   HA914657   1.839  -1.294  12.008  0.0000  0.0000  0.0000
 1973MPD1  HN1114658   2.151  -0.986  12.086  0.0000  0.0000  0.0000
 1973MPD1  HN1214659   2.212  -1.508  12.346  0.0000  0.0000  0.0000
 1973MPD1  HN1314660   2.090  -1.601  12.274  0.0000  0.0000  0.0000
 1973MPD1  NB1414661   2.210  -1.067  12.103  0.0000  0.0000  0.0000
 1973MPD1  NH1514662   2.150  -1.519  12.267  0.0000  0.0000  0.0000
 1974MPD1   CA114663   2.807   0.146  13.857  0.0000  0.0000  0.0000
 1974MPD1   CA214664   2.823   0.156  13.997  0.0000  0.0000  0.0000
 1974MPD1   CA314665   2.799   0.046  14.085  0.0000  0.0000  0.0000
 1974MPD1   CA414666   2.738  -0.065  14.033  0.0000  0.0000  0.0000
 1974MPD1   CA514667   2.704  -0.065  13.903  0.0000  0.0000  0.0000
 1974MPD1   CA614668   2.751   0.030  13.809  0.0000  0.0000  0.0000
 1974MPD1  HA1014669   2.727   0.005  13.706  0.0000  0.0000  0.0000
 1974MPD1   HA714670   2.862   0.252  14.030  0.0000  0.0000  0.0000
 1974MPD1   HA814671   2.697  -0.145  14.095  0.0000  0.0000  0.0000
 1974MPD1   HA914672   2.656  -0.155  13.863  0.0000  0.0000  0.0000
 1974MPD1  HN1114673   2.927   0.291  13.760  0.0000  0.0000  0.0000
 1974MPD1  HN1214674   2.885   0.114  14.261  0.0000  0.0000  0.0000
 1974MPD1  HN1314675   2.797  -0.025  14.278  0.0000  0.0000  0.0000
 1974MPD1  NB1414676   2.831   0.258  13.767  0.0000  0.0000  0.0000
 1974MPD1  NH1514677   2.806   0.061  14.226  0.0000  0.0000  0.0000
 1975MPD1   CA114678   2.259   0.632  10.844  0.0000  0.0000  0.0000
 1975MPD1   CA214679   2.135   0.695  10.865  0.0000  0.0000  0.0000
 1975MPD1   CA314680   2.017   0.620  10.893  0.0000  0.0000  0.0000
 1975MPD1   CA414681   2.026   0.482  10.901  0.0000  0.0000  0.0000
 1975MPD1   CA514682   2.152   0.420  10.884  0.0000  0.0000  0.0000
 1975MPD1   CA614683   2.272   0.495  10.861  0.0000  0.0000  0.0000
 1975MPD1  HA1014684   2.364   0.438  10.852  0.0000  0.0000  0.0000
 1975MPD1   HA714685   2.131   0.803  10.862  0.0000  0.0000  0.0000
 1975MPD1   HA814686   1.939   0.419  10.918  0.0000  0.0000  0.0000
 1975MPD1   HA914687   2.160   0.312  10.892  0.0000  0.0000  0.0000
 1975MPD1  HN1114688   2.390   0.791  10.877  0.0000  0.0000  0.0000
 1975MPD1  HN1214689   1.896   0.784  10.919  0.0000  0.0000  0.0000
 1975MPD1  HN1314690   1.822   0.633  10.958  0.0000  0.0000  0.0000
 1975MPD1  NB1414691   2.377   0.711  10.815  0.0000  0.0000  0.0000
 1975MPD1  NH1514692   1.896   0.683  10.910  0.0000  0.0000  0.0000
 1976MPD2  CA1614693   1.201   0.445  11.230  0.0000  0.0000  0.0000
 1976MPD2  CA1714694   1.240   0.544  11.320  0.0000  0.0000  0.0000
 1976MPD2  CA1814695   1.269   0.675  11.273  0.0000  0.0000  0.0000
 1976MPD2  CA1914696   1.265   0.697  11.134  0.0000  0.0000  0.0000
 1976MPD2  CA2014697   1.241   0.598  11.053  0.0000  0.0000  0.0000
 1976MPD2  CA2114698   1.203   0.471  11.088  0.0000  0.0000  0.0000
 1976MPD2  HA2214699   1.239   0.526  11.427  0.0000  0.0000  0.0000
 1976MPD2  HA2314700   1.277   0.798  11.095  0.0000  0.0000  0.0000
 1976MPD2  HA2414701   1.252   0.620  10.947  0.0000  0.0000  0.0000
 1976MPD2  HA2514702   1.201   0.399  11.007  0.0000  0.0000  0.0000
 1976MPD2  HN2614703   1.104   0.331  11.374  0.0000  0.0000  0.0000
 1976MPD2  HN2714704   1.230   0.794  11.459  0.0000  0.0000  0.0000
 1976MPD2  NB2814705   1.148   0.324  11.283  0.0000  0.0000  0.0000
 1976MPD2  NB2914706   1.268   0.792  11.365  0.0000  0.0000  0.0000
 1977MPD1   CA114707   2.612   0.627  11.090  0.0000  0.0000  0.0000
 1977MPD1   CA214708   2.479   0.682  11.099  0.0000  0.0000  0.0000
 1977MPD1   CA314709   2.454   0.827  11.102  0.0000  0.0000  0.0000
 1977MPD1   CA414710   2.571   0.908  11.109  0.0000  0.0000  0.0000
 1977MPD1   CA514711   2.696   0.859  11.113  0.0000  0.0000  0.0000
 1977MPD1   CA614712   2.719   0.719  11.098  0.0000  0.0000  0.0000
 1977MPD1  HA1014713   2.824   0.692  11.107  0.0000  0.0000  0.0000
 1977MPD1   HA714714   2.393   0.616  11.092  0.0000  0.0000  0.0000
 1977MPD1   HA814715   2.552   1.014  11.127  0.0000  0.0000  0.0000
 1977MPD1   HA914716   2.778   0.929  11.125  0.0000  0.0000  0.0000
 1977MPD1  HN1114717   2.678   0.454  11.005  0.0000  0.0000  0.0000
 1977MPD1  HN1214718   2.298   0.970  11.086  0.0000  0.0000  0.0000
 1977MPD1  HN1314719   2.235   0.819  11.099  0.0000  0.0000  0.0000
 1977MPD1  NB1414720   2.633   0.489  11.089  0.0000  0.0000  0.0000
 1977MPD1  NH1514721   2.320   0.873  11.107  0.0000  0.0000  0.0000
 1978MPD1   CA114722   3.753   1.734  13.741  0.0000  0.0000  0.0000
 1978MPD1   CA214723   3.726   1.825  13.847  0.0000  0.0000  0.0000
 1978MPD1   CA314724   3.827   1.905  13.916  0.0000  0.0000  0.0000
 1978MPD1   CA414725   3.957   1.888  13.872  0.0000  0.0000  0.0000
 1978MPD1   CA514726   3.981   1.803  13.765  0.0000  0.0000  0.0000
 1978MPD1   CA614727   3.879   1.735  13.694  0.0000  0.0000  0.0000
 1978MPD1  HA1014728   3.909   1.673  13.610  0.0000  0.0000  0.0000
 1978MPD1   HA714729   3.625   1.852  13.877  0.0000  0.0000  0.0000
 1978MPD1   HA814730   4.037   1.945  13.917  0.0000  0.0000  0.0000
 1978MPD1   HA914731   4.084   1.797  13.732  0.0000  0.0000  0.0000
 1978MPD1  HN1114732   3.616   1.576  13.725  0.0000  0.0000  0.0000
 1978MPD1  HN1214733   3.875   2.061  14.027  0.0000  0.0000  0.0000
 1978MPD1  HN1314734   3.715   2.006  14.063  0.0000  0.0000  0.0000
 1978MPD1  NB1414735   3.653   1.657  13.675  0.0000  0.0000  0.0000
 1978MPD1  NH1514736   3.806   1.986  14.024  0.0000  0.0000  0.0000
 1979MPD2  CA1614737   1.473   0.283  11.866  0.0000  0.0000  0.0000
 1979MPD2  CA1714738   1.397   0.169  11.855  0.0000  0.0000  0.0000
 1979MPD2  CA1814739   1.381   0.089  11.972  0.0000  0.0000  0.0000
 1979MPD2  CA1914740   1.451   0.118  12.085  0.0000  0.0000  0.0000
 1979MPD2  CA2014741   1.531   0.227  12.091  0.0000  0.0000  0.0000
 1979MPD2  CA2114742   1.540   0.314  11.985  0.0000  0.0000  0.0000
 1979MPD2  HA2214743   1.343   0.142  11.764  0.0000  0.0000  0.0000
 1979MPD2  HA2314744   1.441   0.052  12.170  0.0000  0.0000  0.0000
 1979MPD2  HA2414745   1.598   0.247  12.174  0.0000  0.0000  0.0000
 1979MPD2  HA2514746   1.610   0.396  11.993  0.0000  0.0000  0.0000
 1979MPD2  HN2614747   1.587   0.428  11.778  0.0000  0.0000  0.0000
 1979MPD2  HN2714748   1.240  -0.027  12.045  0.0000  0.0000  0.0000
 1979MPD2  NB2814749   1.517   0.359  11.754  0.0000  0.0000  0.0000
 1979MPD2  NB2914750   1.304  -0.030  11.967  0.0000  0.0000  0.0000
 1980MPD2  CA1614751   3.427   0.640  10.622  0.0000  0.0000  0.0000
 1980MPD2  CA1714752   3.304   0.697  10.653  0.0000  0.0000  0.0000
 1980MPD2  CA1814753   3.201   0.692  10.560  0.0000  0.0000  0.0000
 1980MPD2  CA1914754   3.218   0.631  10.440  0.0000  0.0000  0.0000
 1980MPD2  CA2014755   3.345   0.604  10.395  0.0000  0.0000  0.0000
 1980MPD2  CA2114756   3.446   0.602  10.487  0.0000  0.0000  0.0000
 1980MPD2  HA2214757   3.277   0.733  10.752  0.0000  0.0000  0.0000
 1980MPD2  HA2314758   3.134   0.621  10.371  0.0000  0.0000  0.0000
 1980MPD2  HA2414759   3.364   0.562  10.296  0.0000  0.0000  0.0000
 1980MPD2  HA2514760   3.539   0.566  10.444  0.0000  0.0000  0.0000
 1980MPD2  HN2614761   3.598   0.691  10.728  0.0000  0.0000  0.0000
 1980MPD2  HN2714762   3.084   0.836  10.666  0.0000  0.0000  0.0000
 1980MPD2  NB2814763   3.534   0.615  10.711  0.0000  0.0000  0.0000
 1980MPD2  NB2914764   3.077   0.757  10.603  0.0000  0.0000  0.0000
 1981MPD1   CA114765   1.163   1.385  12.524  0.0000  0.0000  0.0000
 1981MPD1   CA214766   1.088   1.497  12.565  0.0000  0.0000  0.0000
 1981MPD1   CA314767   1.104   1.624  12.502  0.0000  0.0000  0.0000
 1981MPD1   CA414768   1.194   1.634  12.397  0.0000  0.0000  0.0000
 1981MPD1   CA514769   1.268   1.518  12.361  0.0000  0.0000  0.0000
 1981MPD1   CA614770   1.254   1.395  12.421  0.0000  0.0000  0.0000
 1981MPD1  HA1014771   1.304   1.304  12.389  0.0000  0.0000  0.0000
 1981MPD1   HA714772   1.021   1.477  12.648  0.0000  0.0000  0.0000
 1981MPD1   HA814773   1.205   1.720  12.331  0.0000  0.0000  0.0000
 1981MPD1   HA914774   1.342   1.526  12.283  0.0000  0.0000  0.0000
 1981MPD1  HN1114775   1.028   1.250  12.572  0.0000  0.0000  0.0000
 1981MPD1  HN1214776   0.988   1.784  12.464  0.0000  0.0000  0.0000
 1981MPD1  HN1314777   0.942   1.692  12.597  0.0000  0.0000  0.0000
 1981MPD1  NB1414778   1.129   1.256  12.582  0.0000  0.0000  0.0000
 1981MPD1  NH1514779   1.019   1.727  12.541  0.0000  0.0000  0.0000
 1982MPD2  CA1614780   1.200   2.516  13.132  0.0000  0.0000  0.0000
 1982MPD2  CA1714781   1.320   2.450  13.157  0.0000  0.0000  0.0000
 1982MPD2  CA1814782   1.445   2.506  13.163  0.0000  0.0000  0.0000
 1982MPD2  CA1914783   1.457   2.640  13.125  0.0000  0.0000  0.0000
 1982MPD2  CA2014784   1.343   2.711  13.096  0.0000  0.0000  0.0000
 1982MPD2  CA2114785   1.215   2.656  13.097  0.0000  0.0000  0.0000
 1982MPD2  HA2214786   1.312   2.348  13.194  0.0000  0.0000  0.0000
 1982MPD2  HA2314787   1.553   2.691  13.126  0.0000  0.0000  0.0000
 1982MPD2  HA2414788   1.333   2.817  13.079  0.0000  0.0000  0.0000
 1982MPD2  HA2514789   1.127   2.716  13.077  0.0000  0.0000  0.0000
 1982MPD2  HN2614790   1.102   2.342  13.161  0.0000  0.0000  0.0000
 1982MPD2  HN2714791   1.559   2.396  13.290  0.0000  0.0000  0.0000
 1982MPD2  NB2814792   1.087   2.440  13.139  0.0000  0.0000  0.0000
 1982MPD2  NB2914793   1.556   2.433  13.196  0.0000  0.0000  0.0000
 1983MPD2  CA1614794   4.128  -0.005  10.824  0.0000  0.0000  0.0000
 1983MPD2  CA1714795   4.048  -0.086  10.742  0.0000  0.0000  0.0000
 1983MPD2  CA1814796   3.951  -0.026  10.660  0.0000  0.0000  0.0000
 1983MPD2  CA1914797   3.935   0.113  10.662  0.0000  0.0000  0.0000
 1983MPD2  CA2014798   4.022   0.189  10.736  0.0000  0.0000  0.0000
 1983MPD2  CA2114799   4.119   0.131  10.820  0.0000  0.0000  0.0000
 1983MPD2  HA2214800   4.056  -0.194  10.748  0.0000  0.0000  0.0000
 1983MPD2  HA2314801   3.850   0.154  10.608  0.0000  0.0000  0.0000
 1983MPD2  HA2414802   4.012   0.297  10.734  0.0000  0.0000  0.0000
 1983MPD2  HA2514803   4.190   0.193  10.875  0.0000  0.0000  0.0000
 1983MPD2  HN2614804   4.254  -0.158  10.871  0.0000  0.0000  0.0000
 1983MPD2  HN2714805   3.764  -0.085  10.608  0.0000  0.0000  0.0000
 1983MPD2  NB2814806   4.222  -0.069  10.908  0.0000  0.0000  0.0000
 1983MPD2  NB2914807   3.860  -0.100  10.581  0.0000  0.0000  0.0000
 1984MPD2  CA1614808   3.769  -1.036  14.225  0.0000  0.0000  0.0000
 1984MPD2  CA1714809   3.836  -0.981  14.111  0.0000  0.0000  0.0000
 1984MPD2  CA1814810   3.835  -1.031  13.977  0.0000  0.0000  0.0000
 1984MPD2  CA1914811   3.758  -1.147  13.963  0.0000  0.0000  0.0000
 1984MPD2  CA2014812   3.681  -1.194  14.068  0.0000  0.0000  0.0000
 1984MPD2  CA2114813   3.700  -1.153  14.204  0.0000  0.0000  0.0000
 1984MPD2  HA2214814   3.882  -0.884  14.126  0.0000  0.0000  0.0000
 1984MPD2  HA2314815   3.739  -1.189  13.865  0.0000  0.0000  0.0000
 1984MPD2  HA2414816   3.612  -1.274  14.046  0.0000  0.0000  0.0000
 1984MPD2  HA2514817   3.646  -1.196  14.288  0.0000  0.0000  0.0000
 1984MPD2  HN2614818   3.698  -1.036  14.409  0.0000  0.0000  0.0000
 1984MPD2  HN2714819   3.960  -1.049  13.821  0.0000  0.0000  0.0000
 1984MPD2  NB2814820   3.778  -0.997  14.361  0.0000  0.0000  0.0000
 1984MPD2  NB2914821   3.906  -0.979  13.869  0.0000  0.0000  0.0000
 1985MPD2  CA1614822   4.783  -0.181  11.840  0.0000  0.0000  0.0000
 1985MPD2  CA1714823   4.747  -0.133  11.711  0.0000  0.0000  0.0000
 1985MPD2  CA1814824   4.668  -0.209  11.623  0.0000  0.0000  0.0000
 1985MPD2  CA1914825   4.637  -0.340  11.662  0.0000  0.0000  0.0000
 1985MPD2  CA2014826   4.674  -0.391  11.787  0.0000  0.0000  0.0000
 1985MPD2  CA2114827   4.751  -0.319  11.872  0.0000  0.0000  0.0000
 1985MPD2  HA2214828   4.779  -0.033  11.681  0.0000  0.0000  0.0000
 1985MPD2  HA2314829   4.582  -0.406  11.596  0.0000  0.0000  0.0000
 1985MPD2  HA2414830   4.651  -0.493  11.817  0.0000  0.0000  0.0000
 1985MPD2  HA2514831   4.779  -0.360  11.968  0.0000  0.0000  0.0000
 1985MPD2  HN2614832   4.935  -0.051  11.885  0.0000  0.0000  0.0000
 1985MPD2  HN2714833   4.737  -0.211  11.426  0.0000  0.0000  0.0000
 1985MPD2  NB2814834   4.862  -0.108  11.927  0.0000  0.0000  0.0000
 1985MPD2  NB2914835   4.660  -0.177  11.482  0.0000  0.0000  0.0000
 1986MPD2  CA1614836   4.557  -0.917  11.304  0.0000  0.0000  0.0000
 1986MPD2  CA1714837   4.576  -1.043  11.367  0.0000  0.0000  0.0000
 1986MPD2  CA1814838   4.509  -1.162  11.324  0.0000  0.0000  0.0000
 1986MPD2  CA1914839   4.422  -1.150  11.213  0.0000  0.0000  0.0000
 1986MPD2  CA2014840   4.402  -1.023  11.153  0.0000  0.0000  0.0000
 1986MPD2  CA2114841   4.462  -0.906  11.203  0.0000  0.0000  0.0000
 1986MPD2  HA2214842   4.640  -1.048  11.454  0.0000  0.0000  0.0000
 1986MPD2  HA2314843   4.362  -1.235  11.182  0.0000  0.0000  0.0000
 1986MPD2  HA2414844   4.337  -1.015  11.066  0.0000  0.0000  0.0000
 1986MPD2  HA2514845   4.451  -0.809  11.156  0.0000  0.0000  0.0000
 1986MPD2  HN2614846   4.711  -0.789  11.334  0.0000  0.0000  0.0000
 1986MPD2  HN2714847   4.491  -1.363  11.359  0.0000  0.0000  0.0000
 1986MPD2  NB2814848   4.613  -0.798  11.357  0.0000  0.0000  0.0000
 1986MPD2  NB2914849   4.499  -1.275  11.408  0.0000  0.0000  0.0000
 1987MPD1   CA114850   0.532   1.450  12.913  0.0000  0.0000  0.0000
 1987MPD1   CA214851   0.568   1.316  12.928  0.0000  0.0000  0.0000
 1987MPD1   CA314852   0.476   1.213  12.957  0.0000  0.0000  0.0000
 1987MPD1   CA414853   0.337   1.242  12.977  0.0000  0.0000  0.0000
 1987MPD1   CA514854   0.299   1.378  12.950  0.0000  0.0000  0.0000
 1987MPD1   CA614855   0.392   1.479  12.931  0.0000  0.0000  0.0000
 1987MPD1  HA1014856   0.356   1.581  12.921  0.0000  0.0000  0.0000
 1987MPD1   HA714857   0.671   1.286  12.911  0.0000  0.0000  0.0000
 1987MPD1   HA814858   0.265   1.164  12.998  0.0000  0.0000  0.0000
 1987MPD1   HA914859   0.193   1.403  12.952  0.0000  0.0000  0.0000
 1987MPD1  HN1114860   0.575   1.647  12.880  0.0000  0.0000  0.0000
 1987MPD1  HN1214861   0.455   1.040  13.056  0.0000  0.0000  0.0000
 1987MPD1  HN1314862   0.611   1.054  12.974  0.0000  0.0000  0.0000
 1987MPD1  NB1414863   0.621   1.557  12.882  0.0000  0.0000  0.0000
 1987MPD1  NH1514864   0.518   1.087  12.993  0.0000  0.0000  0.0000
 1988MPD2  CA1614865   1.070   0.203  11.876  0.0000  0.0000  0.0000
 1988MPD2  CA1714866   1.136   0.325  11.896  0.0000  0.0000  0.0000
 1988MPD2  CA1814867   1.137   0.396  12.020  0.0000  0.0000  0.0000
 1988MPD2  CA1914868   1.063   0.340  12.124  0.0000  0.0000  0.0000
 1988MPD2  CA2014869   0.998   0.223  12.109  0.0000  0.0000  0.0000
 1988MPD2  CA2114870   0.992   0.157  11.984  0.0000  0.0000  0.0000
 1988MPD2  HA2214871   1.184   0.377  11.813  0.0000  0.0000  0.0000
 1988MPD2  HA2314872   1.050   0.390  12.220  0.0000  0.0000  0.0000
 1988MPD2  HA2414873   0.947   0.173  12.191  0.0000  0.0000  0.0000
 1988MPD2  HA2514874   0.940   0.062  11.971  0.0000  0.0000  0.0000
 1988MPD2  HN2614875   1.097   0.213  11.678  0.0000  0.0000  0.0000
 1988MPD2  HN2714876   1.325   0.487  12.015  0.0000  0.0000  0.0000
 1988MPD2  NB2814877   1.075   0.145  11.750  0.0000  0.0000  0.0000
 1988MPD2  NB2914878   1.227   0.509  12.030  0.0000  0.0000  0.0000
 1989MPD1   CA114879   2.701   1.442  12.535  0.0000  0.0000  0.0000
 1989MPD1   CA214880   2.790   1.547  12.563  0.0000  0.0000  0.0000
 1989MPD1   CA314881   2.866   1.611  12.466  0.0000  0.0000  0.0000
 1989MPD1   CA414882   2.866   1.556  12.336  0.0000  0.0000  0.0000
 1989MPD1   CA514883   2.766   1.461  12.306  0.0000  0.0000  0.0000
 1989MPD1   CA614884   2.683   1.410  12.404  0.0000  0.0000  0.0000
 1989MPD1  HA1014885   2.609   1.334  12.380  0.0000  0.0000  0.0000
 1989MPD1   HA714886   2.802   1.565  12.669  0.0000  0.0000  0.0000
 1989MPD1   HA814887   2.938   1.591  12.262  0.0000  0.0000  0.0000
 1989MPD1   HA914888   2.752   1.431  12.203  0.0000  0.0000  0.0000
 1989MPD1  HN1114889   2.546   1.336  12.638  0.0000  0.0000  0.0000
 1989MPD1  HN1214890   2.975   1.750  12.591  0.0000  0.0000  0.0000
 1989MPD1  HN1314891   2.957   1.780  12.418  0.0000  0.0000  0.0000
 1989MPD1  NB1414892   2.646   1.348  12.630  0.0000  0.0000  0.0000
 1989MPD1  NH1514893   2.934   1.728  12.501  0.0000  0.0000  0.0000
 1990MPD2  CA1614894   1.303   0.230  12.735  0.0000  0.0000  0.0000
 1990MPD2  CA1714895   1.250   0.353  12.753  0.0000  0.0000  0.0000
 1990MPD2  CA1814896   1.324   0.470  12.794  0.0000  0.0000  0.0000
 1990MPD2  CA1914897   1.455   0.450  12.828  0.0000  0.0000  0.0000
 1990MPD2  CA2014898   1.508   0.322  12.820  0.0000  0.0000  0.0000
 1990MPD2  CA2114899   1.438   0.214  12.763  0.0000  0.0000  0.0000
 1990MPD2  HA2214900   1.153   0.384  12.715  0.0000  0.0000  0.0000
 1990MPD2  HA2314901   1.517   0.532  12.864  0.0000  0.0000  0.0000
 1990MPD2  HA2414902   1.613   0.314  12.849  0.0000  0.0000  0.0000
 1990MPD2  HA2514903   1.490   0.119  12.752  0.0000  0.0000  0.0000
 1990MPD2  HN2614904   1.209   0.122  12.581  0.0000  0.0000  0.0000
 1990MPD2  HN2714905   1.156   0.584  12.762  0.0000  0.0000  0.0000
 1990MPD2  NB2814906   1.229   0.120  12.681  0.0000  0.0000  0.0000
 1990MPD2  NB2914907   1.250   0.591  12.801  0.0000  0.0000  0.0000
 1991MPD1   CA114908   1.744  -0.553  13.507  0.0000  0.0000  0.0000
 1991MPD1   CA214909   1.604  -0.575  13.516  0.0000  0.0000  0.0000
 1991MPD1   CA314910   1.550  -0.703  13.504  0.0000  0.0000  0.0000
 1991MPD1   CA414911   1.641  -0.815  13.509  0.0000  0.0000  0.0000
 1991MPD1   CA514912   1.776  -0.795  13.504  0.0000  0.0000  0.0000
 1991MPD1   CA614913   1.826  -0.666  13.504  0.0000  0.0000  0.0000
 1991MPD1  HA1014914   1.934  -0.650  13.505  0.0000  0.0000  0.0000
 1991MPD1   HA714915   1.540  -0.487  13.522  0.0000  0.0000  0.0000
 1991MPD1   HA814916   1.618  -0.921  13.516  0.0000  0.0000  0.0000
 1991MPD1   HA914917   1.843  -0.881  13.501  0.0000  0.0000  0.0000
 1991MPD1  HN1114918   1.714  -0.355  13.522  0.0000  0.0000  0.0000
 1991MPD1  HN1214919   1.389  -0.814  13.559  0.0000  0.0000  0.0000
 1991MPD1  HN1314920   1.353  -0.651  13.522  0.0000  0.0000  0.0000
 1991MPD1  NB1414921   1.792  -0.419  13.522  0.0000  0.0000  0.0000
 1991MPD1  NH1514922   1.414  -0.731  13.507  0.0000  0.0000  0.0000
 1992MPD2  CA1614923   1.865   0.125  11.807  0.0000  0.0000  0.0000
 1992MPD2  CA1714924   1.888   0.169  11.933  0.0000  0.0000  0.0000
 1992MPD2  CA1814925   1.964   0.278  11.958  0.0000  0.0000  0.0000
 1992MPD2  CA1914926   2.013   0.353  11.858  0.0000  0.0000  0.0000
 1992MPD2  CA2014927   1.990   0.313  11.736  0.0000  0.0000  0.0000
 1992MPD2  CA2114928   1.906   0.207  11.705  0.0000  0.0000  0.0000
 1992MPD2  HA2214929   1.845   0.117  12.018  0.0000  0.0000  0.0000
 1992MPD2  HA2314930   2.066   0.440  11.893  0.0000  0.0000  0.0000
 1992MPD2  HA2414931   2.032   0.376  11.658  0.0000  0.0000  0.0000
 1992MPD2  HA2514932   1.877   0.182  11.603  0.0000  0.0000  0.0000
 1992MPD2  HN2614933   1.734  -0.022  11.868  0.0000  0.0000  0.0000
 1992MPD2  HN2714934   2.100   0.323  12.110  0.0000  0.0000  0.0000
 1992MPD2  NB2814935   1.775   0.019  11.784  0.0000  0.0000  0.0000
 1992MPD2  NB2914936   2.001   0.316  12.091  0.0000  0.0000  0.0000
 1993MPD2  CA1614937   3.988   0.611  13.335  0.0000  0.0000  0.0000
 1993MPD2  CA1714938   3.868   0.535  13.351  0.0000  0.0000  0.0000
 1993MPD2  CA1814939   3.845   0.405  13.300  0.0000  0.0000  0.0000
 1993MPD2  CA1914940   3.948   0.344  13.230  0.0000  0.0000  0.0000
 1993MPD2  CA2014941   4.071   0.415  13.216  0.0000  0.0000  0.0000
 1993MPD2  CA2114942   4.087   0.541  13.267  0.0000  0.0000  0.0000
 1993MPD2  HA2214943   3.780   0.573  13.401  0.0000  0.0000  0.0000
 1993MPD2  HA2314944   3.925   0.248  13.185  0.0000  0.0000  0.0000
 1993MPD2  HA2414945   4.151   0.366  13.163  0.0000  0.0000  0.0000
 1993MPD2  HA2514946   4.184   0.587  13.252  0.0000  0.0000  0.0000
 1993MPD2  HN2614947   4.103   0.782  13.386  0.0000  0.0000  0.0000
 1993MPD2  HN2714948   3.663   0.377  13.403  0.0000  0.0000  0.0000
 1993MPD2  NB2814949   4.008   0.745  13.388  0.0000  0.0000  0.0000
 1993MPD2  NB2914950   3.721   0.339  13.329  0.0000  0.0000  0.0000
 1994MPD2  CA1614951   3.144   0.113  11.017  0.0000  0.0000  0.0000
 1994MPD2  CA1714952   3.209  -0.013  10.991  0.0000  0.0000  0.0000
 1994MPD2  CA1814953   3.348  -0.008  10.962  0.0000  0.0000  0.0000
 1994MPD2  CA1914954   3.416   0.115  10.973  0.0000  0.0000  0.0000
 1994MPD2  CA2014955   3.351   0.236  11.000  0.0000  0.0000  0.0000
 1994MPD2  CA2114956   3.218   0.235  11.022  0.0000  0.0000  0.0000
 1994MPD2  HA2214957   3.155  -0.107  10.990  0.0000  0.0000  0.0000
 1994MPD2  HA2314958   3.523   0.119  10.955  0.0000  0.0000  0.0000
 1994MPD2  HA2414959   3.405   0.330  11.000  0.0000  0.0000  0.0000
 1994MPD2  HA2514960   3.164   0.328  11.038  0.0000  0.0000  0.0000
 1994MPD2  HN2614961   2.970   0.222  11.057  0.0000  0.0000  0.0000
 1994MPD2  HN2714962   3.404  -0.208  10.992  0.0000  0.0000  0.0000
 1994MPD2  NB2814963   3.004   0.127  11.052  0.0000  0.0000  0.0000
 1994MPD2  NB2914964   3.429  -0.128  10.934  0.0000  0.0000  0.0000
 1995MPD1   CA114965   2.431   1.735  12.344  0.0000  0.0000  0.0000
 1995MPD1   CA214966   2.496   1.743  12.472  0.0000  0.0000  0.0000
 1995MPD1   CA314967   2.469   1.846  12.563  0.0000  0.0000  0.0000
 1995MPD1   CA414968   2.383   1.949  12.530  0.0000  0.0000  0.0000
 1995MPD1   CA514969   2.313   1.946  12.410  0.0000  0.0000  0.0000
 1995MPD1   CA614970   2.328   1.839  12.321  0.0000  0.0000  0.0000
 1995MPD1  HA1014971   2.263   1.841  12.234  0.0000  0.0000  0.0000
 1995MPD1   HA714972   2.557   1.655  12.490  0.0000  0.0000  0.0000
 1995MPD1   HA814973   2.360   2.020  12.609  0.0000  0.0000  0.0000
 1995MPD1   HA914974   2.235   2.015  12.378  0.0000  0.0000  0.0000
 1995MPD1  HN1114975   2.542   1.581  12.265  0.0000  0.0000  0.0000
 1995MPD1  HN1214976   2.563   1.758  12.722  0.0000  0.0000  0.0000
 1995MPD1  HN1314977   2.482   1.898  12.760  0.0000  0.0000  0.0000
 1995MPD1  NB1414978   2.453   1.627  12.248  0.0000  0.0000  0.0000
 1995MPD1  NH1514979   2.539   1.851  12.691  0.0000  0.0000  0.0000
 1996MPD2  CA1614980   4.228  -1.229  11.689  0.0000  0.0000  0.0000
 1996MPD2  CA1714981   4.160  -1.336  11.620  0.0000  0.0000  0.0000
 1996MPD2  CA1814982   4.139  -1.462  11.683  0.0000  0.0000  0.0000
 1996MPD2  CA1914983   4.186  -1.482  11.816  0.0000  0.0000  0.0000
 1996MPD2  CA2014984   4.255  -1.377  11.883  0.0000  0.0000  0.0000
 1996MPD2  CA2114985   4.271  -1.253  11.822  0.0000  0.0000  0.0000
 1996MPD2  HA2214986   4.118  -1.316  11.522  0.0000  0.0000  0.0000
 1996MPD2  HA2314987   4.154  -1.563  11.880  0.0000  0.0000  0.0000
 1996MPD2  HA2414988   4.295  -1.404  11.980  0.0000  0.0000  0.0000
 1996MPD2  HA2514989   4.333  -1.177  11.869  0.0000  0.0000  0.0000
 1996MPD2  HN2614990   4.360  -1.081  11.629  0.0000  0.0000  0.0000
 1996MPD2  HN2714991   3.999  -1.607  11.693  0.0000  0.0000  0.0000
 1996MPD2  NB2814992   4.263  -1.109  11.621  0.0000  0.0000  0.0000
 1996MPD2  NB2914993   4.051  -1.553  11.624  0.0000  0.0000  0.0000
 1997MPD1   CA114994   1.764   1.135  12.204  0.0000  0.0000  0.0000
 1997MPD1   CA214995   1.792   1.257  12.129  0.0000  0.0000  0.0000
 1997MPD1   CA314996   1.725   1.375  12.153  0.0000  0.0000  0.0000
 1997MPD1   CA414997   1.623   1.374  12.245  0.0000  0.0000  0.0000
 1997MPD1   CA514998   1.595   1.259  12.323  0.0000  0.0000  0.0000
 1997MPD1   CA614999   1.666   1.142  12.308  0.0000  0.0000  0.0000
 1997MPD1  HA1015000   1.649   1.059  12.377  0.0000  0.0000  0.0000
 1997MPD1   HA715001   1.869   1.261  12.053  0.0000  0.0000  0.0000
 1997MPD1   HA815002   1.555   1.459  12.254  0.0000  0.0000  0.0000
 1997MPD1   HA915003   1.516   1.264  12.397  0.0000  0.0000  0.0000
 1997MPD1  HN1115004   1.917   1.020  12.116  0.0000  0.0000  0.0000
 1997MPD1  HN1215005   1.821   1.513  12.031  0.0000  0.0000  0.0000
 1997MPD1  HN1315006   1.683   1.574  12.109  0.0000  0.0000  0.0000
 1997MPD1  NB1415007   1.838   1.014  12.178  0.0000  0.0000  0.0000
 1997MPD1  NH1515008   1.737   1.493  12.083  0.0000  0.0000  0.0000
 1998MPD2  CA1615009   3.231   0.885  13.686  0.0000  0.0000  0.0000
 1998MPD2  CA1715010   3.243   1.013  13.640  0.0000  0.0000  0.0000
 1998MPD2  CA1815011   3.337   1.104  13.696  0.0000  0.0000  0.0000
 1998MPD2  CA1915012   3.433   1.050  13.786  0.0000  0.0000  0.0000
 1998MPD2  CA2015013   3.428   0.919  13.825  0.0000  0.0000  0.0000
 1998MPD2  CA2115014   3.324   0.834  13.779  0.0000  0.0000  0.0000
 1998MPD2  HA2215015   3.177   1.042  13.559  0.0000  0.0000  0.0000
 1998MPD2  HA2315016   3.504   1.125  13.822  0.0000  0.0000  0.0000
 1998MPD2  HA2415017   3.512   0.885  13.884  0.0000  0.0000  0.0000
 1998MPD2  HA2515018   3.323   0.734  13.821  0.0000  0.0000  0.0000
 1998MPD2  HN2615019   3.082   0.842  13.560  0.0000  0.0000  0.0000
 1998MPD2  HN2715020   3.448   1.282  13.662  0.0000  0.0000  0.0000
 1998MPD2  NB2815021   3.128   0.799  13.639  0.0000  0.0000  0.0000
 1998MPD2  NB2915022   3.356   1.240  13.655  0.0000  0.0000  0.0000
 1999MPD2  CA1615023   2.625   1.036  12.180  0.0000  0.0000  0.0000
 1999MPD2  CA1715024   2.530   0.935  12.163  0.0000  0.0000  0.0000
 1999MPD2  CA1815025   2.443   0.905  12.273  0.0000  0.0000  0.0000
 1999MPD2  CA1915026   2.457   0.968  12.392  0.0000  0.0000  0.0000
 1999MPD2  CA2015027   2.562   1.058  12.409  0.0000  0.0000  0.0000
 1999MPD2  CA2115028   2.647   1.090  12.306  0.0000  0.0000  0.0000
 1999MPD2  HA2215029   2.506   0.882  12.071  0.0000  0.0000  0.0000
 1999MPD2  HA2315030   2.387   0.952  12.473  0.0000  0.0000  0.0000
 1999MPD2  HA2415031   2.581   1.100  12.507  0.0000  0.0000  0.0000
 1999MPD2  HA2515032   2.728   1.159  12.326  0.0000  0.0000  0.0000
 1999MPD2  HN2615033   2.794   1.038  12.046  0.0000  0.0000  0.0000
 1999MPD2  HN2715034   2.240   0.854  12.305  0.0000  0.0000  0.0000
 1999MPD2  NB2815035   2.706   1.083  12.069  0.0000  0.0000  0.0000
 1999MPD2  NB2915036   2.322   0.833  12.249  0.0000  0.0000  0.0000
 2000MPD2  CA1615037   4.134  -2.311  13.334  0.0000  0.0000  0.0000
 2000MPD2  CA1715038   4.258  -2.318  13.399  0.0000  0.0000  0.0000
 2000MPD2  CA1815039   4.376  -2.321  13.323  0.0000  0.0000  0.0000
 2000MPD2  CA1915040   4.370  -2.326  13.189  0.0000  0.0000  0.0000
 2000MPD2  CA2015041   4.253  -2.322  13.119  0.0000  0.0000  0.0000
 2000MPD2  CA2115042   4.131  -2.306  13.189  0.0000  0.0000  0.0000
 2000MPD2  HA2215043   4.262  -2.322  13.507  0.0000  0.0000  0.0000
 2000MPD2  HA2315044   4.458  -2.316  13.125  0.0000  0.0000  0.0000
 2000MPD2  HA2415045   4.261  -2.310  13.011  0.0000  0.0000  0.0000
 2000MPD2  HA2515046   4.038  -2.301  13.134  0.0000  0.0000  0.0000
 2000MPD2  HN2615047   3.954  -2.384  13.392  0.0000  0.0000  0.0000
 2000MPD2  HN2715048   4.508  -2.337  13.487  0.0000  0.0000  0.0000
 2000MPD2  NB2815049   4.019  -2.309  13.413  0.0000  0.0000  0.0000
 2000MPD2  NB2915050   4.502  -2.308  13.390  0.0000  0.0000  0.0000
 2001MPD2  CA1615051   1.722  -1.615  12.918  0.0000  0.0000  0.0000
 2001MPD2  CA1715052   1.667  -1.734  12.860  0.0000  0.0000  0.0000
 2001MPD2  CA1815053   1.531  -1.750  12.843  0.0000  0.0000  0.0000
 2001MPD2  CA1915054   1.449  -1.637  12.866  0.0000  0.0000  0.0000
 2001MPD2  CA2015055   1.498  -1.523  12.931  0.0000  0.0000  0.0000
 2001MPD2  CA2115056   1.633  -1.514  12.963  0.0000  0.0000  0.0000
 2001MPD2  HA2215057   1.731  -1.812  12.819  0.0000  0.0000  0.0000
 2001MPD2  HA2315058   1.340  -1.638  12.870  0.0000  0.0000  0.0000
 2001MPD2  HA2415059   1.426  -1.447  12.960  0.0000  0.0000  0.0000
 2001MPD2  HA2515060   1.669  -1.428  13.020  0.0000  0.0000  0.0000
 2001MPD2  HN2615061   1.906  -1.679  12.986  0.0000  0.0000  0.0000
 2001MPD2  HN2715062   1.545  -1.958  12.844  0.0000  0.0000  0.0000
 2001MPD2  NB2815063   1.864  -1.601  12.939  0.0000  0.0000  0.0000
 2001MPD2  NB2915064   1.479  -1.883  12.826  0.0000  0.0000  0.0000
 2002MPD2  CA1615065   3.590  -0.044  12.377  0.0000  0.0000  0.0000
 2002MPD2  CA1715066   3.624   0.092  12.389  0.0000  0.0000  0.0000
 2002MPD2  CA1815067   3.570   0.165  12.496  0.0000  0.0000  0.0000
 2002MPD2  CA1915068   3.492   0.100  12.591  0.0000  0.0000  0.0000
 2002MPD2  CA2015069   3.456  -0.031  12.569  0.0000  0.0000  0.0000
 2002MPD2  CA2115070   3.505  -0.109  12.465  0.0000  0.0000  0.0000
 2002MPD2  HA2215071   3.695   0.145  12.326  0.0000  0.0000  0.0000
 2002MPD2  HA2315072   3.450   0.149  12.679  0.0000  0.0000  0.0000
 2002MPD2  HA2415073   3.400  -0.083  12.646  0.0000  0.0000  0.0000
 2002MPD2  HA2515074   3.494  -0.217  12.469  0.0000  0.0000  0.0000
 2002MPD2  HN2615075   3.605  -0.050  12.179  0.0000  0.0000  0.0000
 2002MPD2  HN2715076   3.707   0.312  12.461  0.0000  0.0000  0.0000
 2002MPD2  NB2815077   3.634  -0.104  12.260  0.0000  0.0000  0.0000
 2002MPD2  NB2915078   3.611   0.299  12.490  0.0000  0.0000  0.0000
 2003MPD2  CA1615079   4.797  -1.926  12.156  0.0000  0.0000  0.0000
 2003MPD2  CA1715080   4.884  -2.025  12.112  0.0000  0.0000  0.0000
 2003MPD2  CA1815081   4.943  -2.002  11.988  0.0000  0.0000  0.0000
 2003MPD2  CA1915082   4.903  -1.892  11.910  0.0000  0.0000  0.0000
 2003MPD2  CA2015083   4.815  -1.793  11.960  0.0000  0.0000  0.0000
 2003MPD2  CA2115084   4.759  -1.814  12.080  0.0000  0.0000  0.0000
 2003MPD2  HA2215085   4.921  -2.106  12.174  0.0000  0.0000  0.0000
 2003MPD2  HA2315086   4.933  -1.877  11.807  0.0000  0.0000  0.0000
 2003MPD2  HA2415087   4.787  -1.708  11.899  0.0000  0.0000  0.0000
 2003MPD2  HA2515088   4.683  -1.747  12.118  0.0000  0.0000  0.0000
 2003MPD2  HN2615089   4.718  -1.841  12.336  0.0000  0.0000  0.0000
 2003MPD2  HN2715090   5.110  -2.048  11.881  0.0000  0.0000  0.0000
 2003MPD2  NB2815091   4.744  -1.928  12.290  0.0000  0.0000  0.0000
 2003MPD2  NB2915092   5.031  -2.088  11.931  0.0000  0.0000  0.0000
 2004MPD2  CA1615093   4.287  -1.850  12.033  0.0000  0.0000  0.0000
 2004MPD2  CA1715094   4.408  -1.923  12.034  0.0000  0.0000  0.0000
 2004MPD2  CA1815095   4.433  -2.032  11.954  0.0000  0.0000  0.0000
 2004MPD2  CA1915096   4.332  -2.072  11.870  0.0000  0.0000  0.0000
 2004MPD2  CA2015097   4.215  -1.995  11.855  0.0000  0.0000  0.0000
 2004MPD2  CA2115098   4.188  -1.885  11.942  0.0000  0.0000  0.0000
 2004MPD2  HA2215099   4.486  -1.889  12.101  0.0000  0.0000  0.0000
 2004MPD2  HA2315100   4.343  -2.167  11.818  0.0000  0.0000  0.0000
 2004MPD2  HA2415101   4.148  -2.036  11.781  0.0000  0.0000  0.0000
 2004MPD2  HA2515102   4.099  -1.824  11.944  0.0000  0.0000  0.0000
 2004MPD2  HN2615103   4.345  -1.685  12.148  0.0000  0.0000  0.0000
 2004MPD2  HN2715104   4.628  -2.084  11.998  0.0000  0.0000  0.0000
 2004MPD2  NB2815105   4.264  -1.743  12.128  0.0000  0.0000  0.0000
 2004MPD2  NB2915106   4.540  -2.124  11.969  0.0000  0.0000  0.0000
 2005TMC3  CA3715107   4.675  -2.315  12.006  0.0000  0.0000  0.0000
 2005TMC3  CA3815108   4.687  -2.446  12.058  0.0000  0.0000  0.0000
 2005TMC3  CA3915109   4.813  -2.495  12.081  0.0000  0.0000  0.0000
 2005TMC3  CA4015110   4.921  -2.422  12.042  0.0000  0.0000  0.0000
 2005TMC3  CA4115111   4.911  -2.298  11.980  0.0000  0.0000  0.0000
 2005TMC3  CA4215112   4.783  -2.249  11.953  0.0000  0.0000  0.0000
 2005TMC3  CB4315113   4.539  -2.263  11.984  0.0000  0.0000  0.0000
 2005TMC3  CB4415114   4.832  -2.624  12.157  0.0000  0.0000  0.0000
 2005TMC3  CB4515115   5.034  -2.226  11.940  0.0000  0.0000  0.0000
 2005TMC3  HA4615116   4.600  -2.508  12.076  0.0000  0.0000  0.0000
 2005TMC3  HA4715117   5.020  -2.464  12.056  0.0000  0.0000  0.0000
 2005TMC3  HA4815118   4.768  -2.160  11.892  0.0000  0.0000  0.0000
 2005TMC3   O4915119   4.439  -2.336  11.986  0.0000  0.0000  0.0000
 2005TMC3   O5015120   4.760  -2.722  12.140  0.0000  0.0000  0.0000
 2005TMC3   O5115121   5.131  -2.282  11.892  0.0000  0.0000  0.0000
 2006MPD1   CA115122   1.696   1.110  13.098  0.0000  0.0000  0.0000
 2006MPD1   CA215123   1.653   0.991  13.031  0.0000  0.0000  0.0000
 2006MPD1   CA315124   1.738   0.942  12.932  0.0000  0.0000  0.0000
 2006MPD1   CA415125   1.866   1.004  12.907  0.0000  0.0000  0.0000
 2006MPD1   CA515126   1.895   1.116  12.976  0.0000  0.0000  0.0000
 2006MPD1   CA615127   1.813   1.180  13.067  0.0000  0.0000  0.0000
 2006MPD1  HA1015128   1.848   1.265  13.125  0.0000  0.0000  0.0000
 2006MPD1   HA715129   1.555   0.950  13.057  0.0000  0.0000  0.0000
 2006MPD1   HA815130   1.935   0.966  12.833  0.0000  0.0000  0.0000
 2006MPD1   HA915131   1.990   1.158  12.946  0.0000  0.0000  0.0000
 2006MPD1  HN1115132   1.577   1.114  13.268  0.0000  0.0000  0.0000
 2006MPD1  HN1215133   1.737   0.837  12.764  0.0000  0.0000  0.0000
 2006MPD1  HN1315134   1.611   0.796  12.878  0.0000  0.0000  0.0000
 2006MPD1  NB1415135   1.612   1.175  13.194  0.0000  0.0000  0.0000
 2006MPD1  NH1515136   1.705   0.829  12.859  0.0000  0.0000  0.0000
 2007MPD2  CA1615137   1.915   0.808  11.865  0.0000  0.0000  0.0000
 2007MPD2  CA1715138   1.991   0.920  11.899  0.0000  0.0000  0.0000
 2007MPD2  CA1815139   2.131   0.917  11.906  0.0000  0.0000  0.0000
 2007MPD2  CA1915140   2.194   0.806  11.849  0.0000  0.0000  0.0000
 2007MPD2  CA2015141   2.116   0.699  11.814  0.0000  0.0000  0.0000
 2007MPD2  CA2115142   1.976   0.689  11.825  0.0000  0.0000  0.0000
 2007MPD2  HA2215143   1.934   1.011  11.918  0.0000  0.0000  0.0000
 2007MPD2  HA2315144   2.302   0.797  11.843  0.0000  0.0000  0.0000
 2007MPD2  HA2415145   2.161   0.612  11.767  0.0000  0.0000  0.0000
 2007MPD2  HA2515146   1.925   0.595  11.804  0.0000  0.0000  0.0000
 2007MPD2  HN2615147   1.735   0.922  11.878  0.0000  0.0000  0.0000
 2007MPD2  HN2715148   2.286   1.042  11.864  0.0000  0.0000  0.0000
 2007MPD2  NB2815149   1.774   0.830  11.891  0.0000  0.0000  0.0000
 2007MPD2  NB2915150   2.204   1.034  11.923  0.0000  0.0000  0.0000
 2008MPD2  CA1615151   1.373   1.804  12.880  0.0000  0.0000  0.0000
 2008MPD2  CA1715152   1.445   1.751  12.990  0.0000  0.0000  0.0000
 2008MPD2  CA1815153   1.586   1.749  12.983  0.0000  0.0000  0.0000
 2008MPD2  CA1915154   1.649   1.811  12.876  0.0000  0.0000  0.0000
 2008MPD2  CA2015155   1.575   1.880  12.781  0.0000  0.0000  0.0000
 2008MPD2  CA2115156   1.438   1.870  12.773  0.0000  0.0000  0.0000
 2008MPD2  HA2215157   1.392   1.698  13.068  0.0000  0.0000  0.0000
 2008MPD2  HA2315158   1.757   1.814  12.884  0.0000  0.0000  0.0000
 2008MPD2  HA2415159   1.632   1.919  12.697  0.0000  0.0000  0.0000
 2008MPD2  HA2515160   1.384   1.915  12.690  0.0000  0.0000  0.0000
 2008MPD2  HN2615161   1.195   1.710  12.883  0.0000  0.0000  0.0000
 2008MPD2  HN2715162   1.746   1.626  13.047  0.0000  0.0000  0.0000
 2008MPD2  NB2815163   1.228   1.805  12.871  0.0000  0.0000  0.0000
 2008MPD2  NB2915164   1.665   1.675  13.082  0.0000  0.0000  0.0000
 2009MPD1   CA115165   3.371   1.474  13.026  0.0000  0.0000  0.0000
 2009MPD1   CA215166   3.422   1.602  13.042  0.0000  0.0000  0.0000
 2009MPD1   CA315167   3.526   1.630  13.133  0.0000  0.0000  0.0000
 2009MPD1   CA415168   3.572   1.532  13.212  0.0000  0.0000  0.0000
 2009MPD1   CA515169   3.521   1.401  13.201  0.0000  0.0000  0.0000
 2009MPD1   CA615170   3.423   1.372  13.108  0.0000  0.0000  0.0000
 2009MPD1  HA1015171   3.390   1.269  13.098  0.0000  0.0000  0.0000
 2009MPD1   HA715172   3.384   1.675  12.971  0.0000  0.0000  0.0000
 2009MPD1   HA815173   3.652   1.551  13.283  0.0000  0.0000  0.0000
 2009MPD1   HA915174   3.562   1.314  13.250  0.0000  0.0000  0.0000
 2009MPD1  HN1115175   3.289   1.489  12.839  0.0000  0.0000  0.0000
 2009MPD1  HN1215176   3.671   1.776  13.194  0.0000  0.0000  0.0000
 2009MPD1  HN1315177   3.541   1.831  13.108  0.0000  0.0000  0.0000
 2009MPD1  NB1415178   3.273   1.444  12.928  0.0000  0.0000  0.0000
 2009MPD1  NH1515179   3.599   1.750  13.128  0.0000  0.0000  0.0000
 2010MPD2  CA1615180   1.372  -2.001  12.286  0.0000  0.0000  0.0000
 2010MPD2  CA1715181   1.273  -1.980  12.385  0.0000  0.0000  0.0000
 2010MPD2  CA1815182   1.139  -1.947  12.353  0.0000  0.0000  0.0000
 2010MPD2  CA1915183   1.107  -1.930  12.215  0.0000  0.0000  0.0000
 2010MPD2  CA2015184   1.209  -1.938  12.113  0.0000  0.0000  0.0000
 2010MPD2  CA2115185   1.339  -1.973  12.151  0.0000  0.0000  0.0000
 2010MPD2  HA2215186   1.296  -2.004  12.488  0.0000  0.0000  0.0000
 2010MPD2  HA2315187   1.002  -1.918  12.191  0.0000  0.0000  0.0000
 2010MPD2  HA2415188   1.178  -1.926  12.010  0.0000  0.0000  0.0000
 2010MPD2  HA2515189   1.419  -2.000  12.083  0.0000  0.0000  0.0000
 2010MPD2  HN2615190   1.549  -2.106  12.253  0.0000  0.0000  0.0000
 2010MPD2  HN2715191   1.087  -1.854  12.528  0.0000  0.0000  0.0000
 2010MPD2  NB2815192   1.500  -2.053  12.324  0.0000  0.0000  0.0000
 2010MPD2  NB2915193   1.051  -1.921  12.462  0.0000  0.0000  0.0000
 2011MPD2  CA1615194   3.134  -1.258  11.717  0.0000  0.0000  0.0000
 2011MPD2  CA1715195   3.229  -1.152  11.702  0.0000  0.0000  0.0000
 2011MPD2  CA1815196   3.311  -1.112  11.806  0.0000  0.0000  0.0000
 2011MPD2  CA1915197   3.305  -1.186  11.921  0.0000  0.0000  0.0000
 2011MPD2  CA2015198   3.218  -1.295  11.942  0.0000  0.0000  0.0000
 2011MPD2  CA2115199   3.130  -1.332  11.837  0.0000  0.0000  0.0000
 2011MPD2  HA2215200   3.240  -1.105  11.605  0.0000  0.0000  0.0000
 2011MPD2  HA2315201   3.363  -1.152  12.007  0.0000  0.0000  0.0000
 2011MPD2  HA2415202   3.220  -1.348  12.037  0.0000  0.0000  0.0000
 2011MPD2  HA2515203   3.059  -1.413  11.849  0.0000  0.0000  0.0000
 2011MPD2  HN2615204   2.998  -1.390  11.624  0.0000  0.0000  0.0000
 2011MPD2  HN2715205   3.374  -0.956  11.707  0.0000  0.0000  0.0000
 2011MPD2  NB2815206   3.058  -1.310  11.607  0.0000  0.0000  0.0000
 2011MPD2  NB2915207   3.381  -0.990  11.803  0.0000  0.0000  0.0000
 2012MPD2  CA1615208   4.084  -0.657  10.857  0.0000  0.0000  0.0000
 2012MPD2  CA1715209   4.191  -0.571  10.889  0.0000  0.0000  0.0000
 2012MPD2  CA1815210   4.318  -0.616  10.923  0.0000  0.0000  0.0000
 2012MPD2  CA1915211   4.348  -0.749  10.897  0.0000  0.0000  0.0000
 2012MPD2  CA2015212   4.245  -0.838  10.870  0.0000  0.0000  0.0000
 2012MPD2  CA2115213   4.110  -0.794  10.860  0.0000  0.0000  0.0000
 2012MPD2  HA2215214   4.166  -0.466  10.903  0.0000  0.0000  0.0000
 2012MPD2  HA2315215   4.448  -0.790  10.912  0.0000  0.0000  0.0000
 2012MPD2  HA2415216   4.268  -0.945  10.863  0.0000  0.0000  0.0000
 2012MPD2  HA2515217   4.034  -0.864  10.827  0.0000  0.0000  0.0000
 2012MPD2  HN2615218   3.870  -0.674  10.876  0.0000  0.0000  0.0000
 2012MPD2  HN2715219   4.405  -0.445  10.888  0.0000  0.0000  0.0000
 2012MPD2  NB2815220   3.944  -0.615  10.840  0.0000  0.0000  0.0000
 2012MPD2  NB2915221   4.412  -0.520  10.955  0.0000  0.0000  0.0000
 2013MPD2  CA1615222   3.361   1.282  12.053  0.0000  0.0000  0.0000
 2013MPD2  CA1715223   3.291   1.267  12.173  0.0000  0.0000  0.0000
 2013MPD2  CA1815224   3.332   1.318  12.301  0.0000  0.0000  0.0000
 2013MPD2  CA1915225   3.452   1.387  12.305  0.0000  0.0000  0.0000
 2013MPD2  CA2015226   3.533   1.401  12.186  0.0000  0.0000  0.0000
 2013MPD2  CA2115227   3.487   1.348  12.062  0.0000  0.0000  0.0000
 2013MPD2  HA2215228   3.195   1.216  12.167  0.0000  0.0000  0.0000
 2013MPD2  HA2315229   3.483   1.440  12.395  0.0000  0.0000  0.0000
 2013MPD2  HA2415230   3.620   1.465  12.190  0.0000  0.0000  0.0000
 2013MPD2  HA2515231   3.552   1.368  11.977  0.0000  0.0000  0.0000
 2013MPD2  HN2615232   3.230   1.256  11.889  0.0000  0.0000  0.0000
 2013MPD2  HN2715233   3.276   1.385  12.494  0.0000  0.0000  0.0000
 2013MPD2  NB2815234   3.318   1.230  11.932  0.0000  0.0000  0.0000
 2013MPD2  NB2915235   3.244   1.332  12.414  0.0000  0.0000  0.0000
 2014MPD1   CA115236   0.725   0.114  13.528  0.0000  0.0000  0.0000
 2014MPD1   CA215237   0.592   0.136  13.564  0.0000  0.0000  0.0000
 2014MPD1   CA315238   0.520   0.235  13.497  0.0000  0.0000  0.0000
 2014MPD1   CA415239   0.583   0.331  13.407  0.0000  0.0000  0.0000
 2014MPD1   CA515240   0.717   0.316  13.391  0.0000  0.0000  0.0000
 2014MPD1   CA615241   0.786   0.205  13.442  0.0000  0.0000  0.0000
 2014MPD1  HA1015242   0.893   0.201  13.429  0.0000  0.0000  0.0000
 2014MPD1   HA715243   0.544   0.072  13.637  0.0000  0.0000  0.0000
 2014MPD1   HA815244   0.519   0.411  13.372  0.0000  0.0000  0.0000
 2014MPD1   HA915245   0.774   0.394  13.342  0.0000  0.0000  0.0000
 2014MPD1  HN1115246   0.870  -0.040  13.536  0.0000  0.0000  0.0000
 2014MPD1  HN1215247   0.338   0.162  13.551  0.0000  0.0000  0.0000
 2014MPD1  HN1315248   0.332   0.324  13.481  0.0000  0.0000  0.0000
 2014MPD1  NB1415249   0.808   0.012  13.596  0.0000  0.0000  0.0000
 2014MPD1  NH1515250   0.383   0.249  13.525  0.0000  0.0000  0.0000
 2015MPD2  CA1615251   3.009   1.647  13.105  0.0000  0.0000  0.0000
 2015MPD2  CA1715252   2.872   1.634  13.132  0.0000  0.0000  0.0000
 2015MPD2  CA1815253   2.778   1.662  13.032  0.0000  0.0000  0.0000
 2015MPD2  CA1915254   2.825   1.714  12.902  0.0000  0.0000  0.0000
 2015MPD2  CA2015255   2.960   1.726  12.880  0.0000  0.0000  0.0000
 2015MPD2  CA2115256   3.054   1.693  12.980  0.0000  0.0000  0.0000
 2015MPD2  HA2215257   2.832   1.607  13.229  0.0000  0.0000  0.0000
 2015MPD2  HA2315258   2.763   1.742  12.818  0.0000  0.0000  0.0000
 2015MPD2  HA2415259   2.995   1.763  12.784  0.0000  0.0000  0.0000
 2015MPD2  HA2515260   3.161   1.702  12.964  0.0000  0.0000  0.0000
 2015MPD2  HN2615261   3.101   1.511  13.233  0.0000  0.0000  0.0000
 2015MPD2  HN2715262   2.601   1.658  13.147  0.0000  0.0000  0.0000
 2015MPD2  NB2815263   3.098   1.609  13.206  0.0000  0.0000  0.0000
 2015MPD2  NB2915264   2.638   1.641  13.054  0.0000  0.0000  0.0000
 2016MPD2  CA1615265   1.071  -0.717  12.600  0.0000  0.0000  0.0000
 2016MPD2  CA1715266   1.039  -0.777  12.725  0.0000  0.0000  0.0000
 2016MPD2  CA1815267   1.035  -0.918  12.737  0.0000  0.0000  0.0000
 2016MPD2  CA1915268   1.085  -0.996  12.632  0.0000  0.0000  0.0000
 2016MPD2  CA2015269   1.127  -0.934  12.515  0.0000  0.0000  0.0000
 2016MPD2  CA2115270   1.103  -0.799  12.492  0.0000  0.0000  0.0000
 2016MPD2  HA2215271   0.996  -0.716  12.803  0.0000  0.0000  0.0000
 2016MPD2  HA2315272   1.106  -1.101  12.647  0.0000  0.0000  0.0000
 2016MPD2  HA2415273   1.157  -0.998  12.433  0.0000  0.0000  0.0000
 2016MPD2  HA2515274   1.121  -0.760  12.393  0.0000  0.0000  0.0000
 2016MPD2  HN2615275   1.072  -0.545  12.486  0.0000  0.0000  0.0000
 2016MPD2  HN2715276   1.055  -0.926  12.941  0.0000  0.0000  0.0000
 2016MPD2  NB2815277   1.067  -0.574  12.583  0.0000  0.0000  0.0000
 2016MPD2  NB2915278   1.010  -0.970  12.862  0.0000  0.0000  0.0000
 2017MPD2  CA1615279   0.873   1.554  13.245  0.0000  0.0000  0.0000
 2017MPD2  CA1715280   0.861   1.693  13.231  0.0000  0.0000  0.0000
 2017MPD2  CA1815281   0.741   1.757  13.195  0.0000  0.0000  0.0000
 2017MPD2  CA1915282   0.636   1.670  13.163  0.0000  0.0000  0.0000
 2017MPD2  CA2015283   0.643   1.534  13.176  0.0000  0.0000  0.0000
 2017MPD2  CA2115284   0.760   1.476  13.220  0.0000  0.0000  0.0000
 2017MPD2  HA2215285   0.950   1.749  13.257  0.0000  0.0000  0.0000
 2017MPD2  HA2315286   0.540   1.717  13.141  0.0000  0.0000  0.0000
 2017MPD2  HA2415287   0.556   1.470  13.164  0.0000  0.0000  0.0000
 2017MPD2  HA2515288   0.764   1.374  13.254  0.0000  0.0000  0.0000
 2017MPD2  HN2615289   0.980   1.421  13.356  0.0000  0.0000  0.0000
 2017MPD2  HN2715290   0.648   1.930  13.241  0.0000  0.0000  0.0000
 2017MPD2  NB2815291   0.992   1.496  13.289  0.0000  0.0000  0.0000
 2017MPD2  NB2915292   0.732   1.898  13.197  0.0000  0.0000  0.0000
 2018MPD1   CA115293   3.231  -1.143  13.617  0.0000  0.0000  0.0000
 2018MPD1   CA215294   3.312  -1.222  13.534  0.0000  0.0000  0.0000
 2018MPD1   CA315295   3.449  -1.193  13.515  0.0000  0.0000  0.0000
 2018MPD1   CA415296   3.505  -1.081  13.587  0.0000  0.0000  0.0000
 2018MPD1   CA515297   3.424  -1.002  13.669  0.0000  0.0000  0.0000
 2018MPD1   CA615298   3.288  -1.040  13.684  0.0000  0.0000  0.0000
 2018MPD1  HA1015299   3.228  -0.979  13.752  0.0000  0.0000  0.0000
 2018MPD1   HA715300   3.268  -1.305  13.480  0.0000  0.0000  0.0000
 2018MPD1   HA815301   3.606  -1.043  13.571  0.0000  0.0000  0.0000
 2018MPD1   HA915302   3.468  -0.917  13.720  0.0000  0.0000  0.0000
 2018MPD1  HN1115303   3.065  -1.263  13.582  0.0000  0.0000  0.0000
 2018MPD1  HN1215304   3.519  -1.365  13.432  0.0000  0.0000  0.0000
 2018MPD1  HN1315305   3.616  -1.220  13.420  0.0000  0.0000  0.0000
 2018MPD1  NB1415306   3.098  -1.181  13.632  0.0000  0.0000  0.0000
 2018MPD1  NH1515307   3.526  -1.264  13.428  0.0000  0.0000  0.0000
 2019MPD2  CA1615308   3.780  -0.800  11.808  0.0000  0.0000  0.0000
 2019MPD2  CA1715309   3.771  -0.811  11.668  0.0000  0.0000  0.0000
 2019MPD2  CA1815310   3.746  -0.939  11.615  0.0000  0.0000  0.0000
 2019MPD2  CA1915311   3.739  -1.050  11.695  0.0000  0.0000  0.0000
 2019MPD2  CA2015312   3.746  -1.031  11.830  0.0000  0.0000  0.0000
 2019MPD2  CA2115313   3.773  -0.910  11.891  0.0000  0.0000  0.0000
 2019MPD2  HA2215314   3.775  -0.725  11.602  0.0000  0.0000  0.0000
 2019MPD2  HA2315315   3.723  -1.151  11.657  0.0000  0.0000  0.0000
 2019MPD2  HA2415316   3.759  -1.121  11.889  0.0000  0.0000  0.0000
 2019MPD2  HA2515317   3.778  -0.900  11.999  0.0000  0.0000  0.0000
 2019MPD2  HN2615318   3.809  -0.601  11.781  0.0000  0.0000  0.0000
 2019MPD2  HN2715319   3.771  -0.984  11.408  0.0000  0.0000  0.0000
 2019MPD2  NB2815320   3.807  -0.670  11.856  0.0000  0.0000  0.0000
 2019MPD2  NB2915321   3.705  -0.960  11.481  0.0000  0.0000  0.0000
 2020MPD2  CA1615322   1.258   0.861  12.387  0.0000  0.0000  0.0000
 2020MPD2  CA1715323   1.311   0.951  12.300  0.0000  0.0000  0.0000
 2020MPD2  CA1815324   1.222   1.040  12.237  0.0000  0.0000  0.0000
 2020MPD2  CA1915325   1.085   1.041  12.265  0.0000  0.0000  0.0000
 2020MPD2  CA2015326   1.040   0.952  12.361  0.0000  0.0000  0.0000
 2020MPD2  CA2115327   1.121   0.859  12.418  0.0000  0.0000  0.0000
 2020MPD2  HA2215328   1.416   0.950  12.272  0.0000  0.0000  0.0000
 2020MPD2  HA2315329   1.018   1.114  12.220  0.0000  0.0000  0.0000
 2020MPD2  HA2415330   0.933   0.952  12.381  0.0000  0.0000  0.0000
 2020MPD2  HA2515331   1.082   0.789  12.491  0.0000  0.0000  0.0000
 2020MPD2  HN2615332   1.446   0.808  12.434  0.0000  0.0000  0.0000
 2020MPD2  HN2715333   1.241   1.220  12.141  0.0000  0.0000  0.0000
 2020MPD2  NB2815334   1.353   0.768  12.433  0.0000  0.0000  0.0000
 2020MPD2  NB2915335   1.271   1.123  12.135  0.0000  0.0000  0.0000
 2021MPD2  CA1615336   3.782  -0.277  11.233  0.0000  0.0000  0.0000
 2021MPD2  CA1715337   3.861  -0.362  11.304  0.0000  0.0000  0.0000
 2021MPD2  CA1815338   3.984  -0.404  11.266  0.0000  0.0000  0.0000
 2021MPD2  CA1915339   4.037  -0.351  11.152  0.0000  0.0000  0.0000
 2021MPD2  CA2015340   3.957  -0.260  11.078  0.0000  0.0000  0.0000
 2021MPD2  CA2115341   3.834  -0.214  11.124  0.0000  0.0000  0.0000
 2021MPD2  HA2215342   3.813  -0.405  11.391  0.0000  0.0000  0.0000
 2021MPD2  HA2315343   4.135  -0.385  11.119  0.0000  0.0000  0.0000
 2021MPD2  HA2415344   3.991  -0.217  10.984  0.0000  0.0000  0.0000
 2021MPD2  HA2515345   3.786  -0.137  11.065  0.0000  0.0000  0.0000
 2021MPD2  HN2615346   3.661  -0.167  11.362  0.0000  0.0000  0.0000
 2021MPD2  HN2715347   4.151  -0.513  11.291  0.0000  0.0000  0.0000
 2021MPD2  NB2815348   3.653  -0.228  11.282  0.0000  0.0000  0.0000
 2021MPD2  NB2915349   4.068  -0.484  11.342  0.0000  0.0000  0.0000
 2022MPD2  CA1615350   3.529  -0.626  11.361  0.0000  0.0000  0.0000
 2022MPD2  CA1715351   3.446  -0.646  11.241  0.0000  0.0000  0.0000
 2022MPD2  CA1815352   3.507  -0.674  11.116  0.0000  0.0000  0.0000
 2022MPD2  CA1915353   3.644  -0.693  11.108  0.0000  0.0000  0.0000
 2022MPD2  CA2015354   3.721  -0.675  11.217  0.0000  0.0000  0.0000
 2022MPD2  CA2115355   3.668  -0.641  11.345  0.0000  0.0000  0.0000
 2022MPD2  HA2215356   3.338  -0.635  11.247  0.0000  0.0000  0.0000
 2022MPD2  HA2315357   3.683  -0.723  11.011  0.0000  0.0000  0.0000
 2022MPD2  HA2415358   3.828  -0.693  11.205  0.0000  0.0000  0.0000
 2022MPD2  HA2515359   3.732  -0.630  11.432  0.0000  0.0000  0.0000
 2022MPD2  HN2615360   3.424  -0.691  11.516  0.0000  0.0000  0.0000
 2022MPD2  HN2715361   3.348  -0.745  11.014  0.0000  0.0000  0.0000
 2022MPD2  NB2815362   3.482  -0.612  11.490  0.0000  0.0000  0.0000
 2022MPD2  NB2915363   3.428  -0.684  11.000  0.0000  0.0000  0.0000
 2023MPD2  CA1615364   3.001   1.219  11.230  0.0000  0.0000  0.0000
 2023MPD2  CA1715365   2.979   1.148  11.112  0.0000  0.0000  0.0000
 2023MPD2  CA1815366   2.895   1.195  11.007  0.0000  0.0000  0.0000
 2023MPD2  CA1915367   2.849   1.321  11.013  0.0000  0.0000  0.0000
 2023MPD2  CA2015368   2.880   1.401  11.126  0.0000  0.0000  0.0000
 2023MPD2  CA2115369   2.959   1.351  11.235  0.0000  0.0000  0.0000
 2023MPD2  HA2215370   3.015   1.046  11.099  0.0000  0.0000  0.0000
 2023MPD2  HA2315371   2.792   1.366  10.933  0.0000  0.0000  0.0000
 2023MPD2  HA2415372   2.834   1.499  11.135  0.0000  0.0000  0.0000
 2023MPD2  HA2515373   2.982   1.426  11.309  0.0000  0.0000  0.0000
 2023MPD2  HN2615374   3.165   1.109  11.285  0.0000  0.0000  0.0000
 2023MPD2  HN2715375   2.948   1.055  10.867  0.0000  0.0000  0.0000
 2023MPD2  NB2815376   3.097   1.174  11.322  0.0000  0.0000  0.0000
 2023MPD2  NB2915377   2.874   1.117  10.895  0.0000  0.0000  0.0000
 2024MPD2  CA1615378   2.257   1.840  13.534  0.0000  0.0000  0.0000
 2024MPD2  CA1715379   2.155   1.928  13.566  0.0000  0.0000  0.0000
 2024MPD2  CA1815380   2.121   1.963  13.693  0.0000  0.0000  0.0000
 2024MPD2  CA1915381   2.184   1.896  13.796  0.0000  0.0000  0.0000
 2024MPD2  CA2015382   2.297   1.818  13.771  0.0000  0.0000  0.0000
 2024MPD2  CA2115383   2.337   1.788  13.636  0.0000  0.0000  0.0000
 2024MPD2  HA2215384   2.098   1.966  13.481  0.0000  0.0000  0.0000
 2024MPD2  HA2315385   2.152   1.921  13.897  0.0000  0.0000  0.0000
 2024MPD2  HA2415386   2.347   1.775  13.858  0.0000  0.0000  0.0000
 2024MPD2  HA2515387   2.416   1.719  13.608  0.0000  0.0000  0.0000
 2024MPD2  HN2615388   2.376   1.805  13.365  0.0000  0.0000  0.0000
 2024MPD2  HN2715389   2.022   2.145  13.686  0.0000  0.0000  0.0000
 2024MPD2  NB2815390   2.279   1.804  13.397  0.0000  0.0000  0.0000
 2024MPD2  NB2915391   2.009   2.048  13.710  0.0000  0.0000  0.0000
 2025MPD2  CA1615392   3.038  -2.075  12.059  0.0000  0.0000  0.0000
 2025MPD2  CA1715393   3.003  -1.975  11.959  0.0000  0.0000  0.0000
 2025MPD2  CA1815394   3.099  -1.925  11.869  0.0000  0.0000  0.0000
 2025MPD2  CA1915395   3.224  -1.973  11.883  0.0000  0.0000  0.0000
 2025MPD2  CA2015396   3.256  -2.070  11.979  0.0000  0.0000  0.0000
 2025MPD2  CA2115397   3.167  -2.120  12.070  0.0000  0.0000  0.0000
 2025MPD2  HA2215398   2.901  -1.941  11.945  0.0000  0.0000  0.0000
 2025MPD2  HA2315399   3.306  -1.929  11.827  0.0000  0.0000  0.0000
 2025MPD2  HA2415400   3.363  -2.090  11.985  0.0000  0.0000  0.0000
 2025MPD2  HA2515401   3.200  -2.198  12.138  0.0000  0.0000  0.0000
 2025MPD2  HN2615402   2.997  -2.144  12.244  0.0000  0.0000  0.0000
 2025MPD2  HN2715403   2.989  -1.861  11.699  0.0000  0.0000  0.0000
 2025MPD2  NB2815404   2.949  -2.116  12.159  0.0000  0.0000  0.0000
 2025MPD2  NB2915405   3.065  -1.839  11.762  0.0000  0.0000  0.0000
 2026MPD2  CA1615406   2.435   1.058  13.260  0.0000  0.0000  0.0000
 2026MPD2  CA1715407   2.317   1.116  13.298  0.0000  0.0000  0.0000
 2026MPD2  CA1815408   2.281   1.244  13.251  0.0000  0.0000  0.0000
 2026MPD2  CA1915409   2.376   1.330  13.187  0.0000  0.0000  0.0000
 2026MPD2  CA2015410   2.499   1.272  13.161  0.0000  0.0000  0.0000
 2026MPD2  CA2115411   2.528   1.142  13.203  0.0000  0.0000  0.0000
 2026MPD2  HA2215412   2.240   1.064  13.354  0.0000  0.0000  0.0000
 2026MPD2  HA2315413   2.349   1.426  13.143  0.0000  0.0000  0.0000
 2026MPD2  HA2415414   2.572   1.324  13.100  0.0000  0.0000  0.0000
 2026MPD2  HA2515415   2.625   1.105  13.172  0.0000  0.0000  0.0000
 2026MPD2  HN2615416   2.418   0.893  13.384  0.0000  0.0000  0.0000
 2026MPD2  HN2715417   2.122   1.277  13.380  0.0000  0.0000  0.0000
 2026MPD2  NB2815418   2.457   0.925  13.296  0.0000  0.0000  0.0000
 2026MPD2  NB2915419   2.146   1.291  13.282  0.0000  0.0000  0.0000
 2027MPD2  CA1615420   1.111  -0.886  13.581  0.0000  0.0000  0.0000
 2027MPD2  CA1715421   1.090  -0.749  13.595  0.0000  0.0000  0.0000
 2027MPD2  CA1815422   1.142  -0.677  13.704  0.0000  0.0000  0.0000
 2027MPD2  CA1915423   1.225  -0.739  13.790  0.0000  0.0000  0.0000
 2027MPD2  CA2015424   1.262  -0.874  13.769  0.0000  0.0000  0.0000
 2027MPD2  CA2115425   1.198  -0.946  13.672  0.0000  0.0000  0.0000
 2027MPD2  HA2215426   1.029  -0.696  13.522  0.0000  0.0000  0.0000
 2027MPD2  HA2315427   1.278  -0.685  13.868  0.0000  0.0000  0.0000
 2027MPD2  HA2415428   1.332  -0.919  13.839  0.0000  0.0000  0.0000
 2027MPD2  HA2515429   1.218  -1.052  13.663  0.0000  0.0000  0.0000
 2027MPD2  HN2615430   1.089  -1.061  13.470  0.0000  0.0000  0.0000
 2027MPD2  HN2715431   1.182  -0.497  13.793  0.0000  0.0000  0.0000
 2027MPD2  NB2815432   1.047  -0.969  13.481  0.0000  0.0000  0.0000
 2027MPD2  NB2915433   1.116  -0.538  13.728  0.0000  0.0000  0.0000
 2028MPD2  CA1615434   2.777   1.481  11.539  0.0000  0.0000  0.0000
 2028MPD2  CA1715435   2.799   1.605  11.486  0.0000  0.0000  0.0000
 2028MPD2  CA1815436   2.849   1.703  11.576  0.0000  0.0000  0.0000
 2028MPD2  CA1915437   2.863   1.682  11.711  0.0000  0.0000  0.0000
 2028MPD2  CA2015438   2.834   1.559  11.763  0.0000  0.0000  0.0000
 2028MPD2  CA2115439   2.788   1.462  11.677  0.0000  0.0000  0.0000
 2028MPD2  HA2215440   2.771   1.632  11.385  0.0000  0.0000  0.0000
 2028MPD2  HA2315441   2.878   1.766  11.779  0.0000  0.0000  0.0000
 2028MPD2  HA2415442   2.843   1.535  11.869  0.0000  0.0000  0.0000
 2028MPD2  HA2515443   2.766   1.363  11.715  0.0000  0.0000  0.0000
 2028MPD2  HN2615444   2.803   1.309  11.425  0.0000  0.0000  0.0000
 2028MPD2  HN2715445   2.766   1.880  11.509  0.0000  0.0000  0.0000
 2028MPD2  NB2815446   2.734   1.371  11.466  0.0000  0.0000  0.0000
 2028MPD2  NB2915447   2.856   1.840  11.533  0.0000  0.0000  0.0000
 2029MPD2  CA1615448   3.536   0.433  11.279  0.0000  0.0000  0.0000
 2029MPD2  CA1715449   3.449   0.543  11.306  0.0000  0.0000  0.0000
 2029MPD2  CA1815450   3.505   0.675  11.310  0.0000  0.0000  0.0000
 2029MPD2  CA1915451   3.630   0.692  11.252  0.0000  0.0000  0.0000
 2029MPD2  CA2015452   3.710   0.587  11.222  0.0000  0.0000  0.0000
 2029MPD2  CA2115453   3.669   0.456  11.238  0.0000  0.0000  0.0000
 2029MPD2  HA2215454   3.348   0.524  11.340  0.0000  0.0000  0.0000
 2029MPD2  HA2315455   3.672   0.791  11.240  0.0000  0.0000  0.0000
 2029MPD2  HA2415456   3.813   0.599  11.192  0.0000  0.0000  0.0000
 2029MPD2  HA2515457   3.737   0.374  11.217  0.0000  0.0000  0.0000
 2029MPD2  HN2615458   3.548   0.232  11.213  0.0000  0.0000  0.0000
 2029MPD2  HN2715459   3.345   0.806  11.343  0.0000  0.0000  0.0000
 2029MPD2  NB2815460   3.494   0.290  11.276  0.0000  0.0000  0.0000
 2029MPD2  NB2915461   3.433   0.772  11.381  0.0000  0.0000  0.0000
 2030MPD2  CA1615462   1.790  -0.201  12.451  0.0000  0.0000  0.0000
 2030MPD2  CA1715463   1.752  -0.059  12.439  0.0000  0.0000  0.0000
 2030MPD2  CA1815464   1.778   0.032  12.543  0.0000  0.0000  0.0000
 2030MPD2  CA1915465   1.835  -0.020  12.664  0.0000  0.0000  0.0000
 2030MPD2  CA2015466   1.878  -0.152  12.673  0.0000  0.0000  0.0000
 2030MPD2  CA2115467   1.856  -0.245  12.566  0.0000  0.0000  0.0000
 2030MPD2  HA2215468   1.697  -0.029  12.350  0.0000  0.0000  0.0000
 2030MPD2  HA2315469   1.843   0.039  12.755  0.0000  0.0000  0.0000
 2030MPD2  HA2415470   1.940  -0.184  12.756  0.0000  0.0000  0.0000
 2030MPD2  HA2515471   1.890  -0.345  12.589  0.0000  0.0000  0.0000
 2030MPD2  HN2615472   1.676  -0.288  12.294  0.0000  0.0000  0.0000
 2030MPD2  HN2715473   1.791   0.230  12.607  0.0000  0.0000  0.0000
 2030MPD2  NB2815474   1.763  -0.297  12.345  0.0000  0.0000  0.0000
 2030MPD2  NB2915475   1.739   0.170  12.544  0.0000  0.0000  0.0000
 2031MPD2  CA1615476   1.441   1.160  13.822  0.0000  0.0000  0.0000
 2031MPD2  CA1715477   1.332   1.073  13.854  0.0000  0.0000  0.0000
 2031MPD2  CA1815478   1.349   0.969  13.955  0.0000  0.0000  0.0000
 2031MPD2  CA1915479   1.465   0.977  14.029  0.0000  0.0000  0.0000
 2031MPD2  CA2015480   1.563   1.073  14.010  0.0000  0.0000  0.0000
 2031MPD2  CA2115481   1.554   1.167  13.906  0.0000  0.0000  0.0000
 2031MPD2  HA2215482   1.241   1.079  13.795  0.0000  0.0000  0.0000
 2031MPD2  HA2315483   1.481   0.896  14.100  0.0000  0.0000  0.0000
 2031MPD2  HA2415484   1.652   1.064  14.071  0.0000  0.0000  0.0000
 2031MPD2  HA2515485   1.635   1.236  13.882  0.0000  0.0000  0.0000
 2031MPD2  HN2615486   1.533   1.227  13.644  0.0000  0.0000  0.0000
 2031MPD2  HN2715487   1.252   0.833  14.072  0.0000  0.0000  0.0000
 2031MPD2  NB2815488   1.442   1.217  13.687  0.0000  0.0000  0.0000
 2031MPD2  NB2915489   1.266   0.850  13.973  0.0000  0.0000  0.0000
 2032MPD1   CA115490   3.294   0.415  12.897  0.0000  0.0000  0.0000
 2032MPD1   CA215491   3.210   0.530  12.879  0.0000  0.0000  0.0000
 2032MPD1   CA315492   3.070   0.518  12.892  0.0000  0.0000  0.0000
 2032MPD1   CA415493   3.010   0.397  12.922  0.0000  0.0000  0.0000
 2032MPD1   CA515494   3.095   0.285  12.942  0.0000  0.0000  0.0000
 2032MPD1   CA615495   3.234   0.290  12.932  0.0000  0.0000  0.0000
 2032MPD1  HA1015496   3.294   0.202  12.955  0.0000  0.0000  0.0000
 2032MPD1   HA715497   3.259   0.626  12.862  0.0000  0.0000  0.0000
 2032MPD1   HA815498   2.906   0.390  12.951  0.0000  0.0000  0.0000
 2032MPD1   HA915499   3.045   0.193  12.970  0.0000  0.0000  0.0000
 2032MPD1  HN1115500   3.475   0.348  12.824  0.0000  0.0000  0.0000
 2032MPD1  HN1215501   3.041   0.721  12.857  0.0000  0.0000  0.0000
 2032MPD1  HN1315502   2.897   0.617  12.849  0.0000  0.0000  0.0000
 2032MPD1  NB1415503   3.436   0.420  12.882  0.0000  0.0000  0.0000
 2032MPD1  NH1515504   2.995   0.633  12.872  0.0000  0.0000  0.0000
 2033MPD2  CA1615505   2.219  -1.927  12.286  0.0000  0.0000  0.0000
 2033MPD2  CA1715506   2.209  -1.856  12.165  0.0000  0.0000  0.0000
 2033MPD2  CA1815507   2.083  -1.810  12.123  0.0000  0.0000  0.0000
 2033MPD2  CA1915508   1.973  -1.819  12.209  0.0000  0.0000  0.0000
 2033MPD2  CA2015509   1.979  -1.889  12.327  0.0000  0.0000  0.0000
 2033MPD2  CA2115510   2.102  -1.944  12.363  0.0000  0.0000  0.0000
 2033MPD2  HA2215511   2.298  -1.835  12.106  0.0000  0.0000  0.0000
 2033MPD2  HA2315512   1.879  -1.773  12.181  0.0000  0.0000  0.0000
 2033MPD2  HA2415513   1.887  -1.894  12.384  0.0000  0.0000  0.0000
 2033MPD2  HA2515514   2.112  -1.997  12.457  0.0000  0.0000  0.0000
 2033MPD2  HN2615515   2.418  -1.936  12.268  0.0000  0.0000  0.0000
 2033MPD2  HN2715516   2.125  -1.634  12.019  0.0000  0.0000  0.0000
 2033MPD2  NB2815517   2.342  -1.979  12.320  0.0000  0.0000  0.0000
 2033MPD2  NB2915518   2.070  -1.719  12.010  0.0000  0.0000  0.0000
 2034MPD1   CA115519   2.062   1.306  12.652  0.0000  0.0000  0.0000
 2034MPD1   CA215520   2.148   1.310  12.766  0.0000  0.0000  0.0000
 2034MPD1   CA315521   2.280   1.266  12.753  0.0000  0.0000  0.0000
 2034MPD1   CA415522   2.325   1.217  12.629  0.0000  0.0000  0.0000
 2034MPD1   CA515523   2.243   1.221  12.520  0.0000  0.0000  0.0000
 2034MPD1   CA615524   2.108   1.259  12.529  0.0000  0.0000  0.0000
 2034MPD1  HA1015525   2.047   1.262  12.439  0.0000  0.0000  0.0000
 2034MPD1   HA715526   2.106   1.351  12.858  0.0000  0.0000  0.0000
 2034MPD1   HA815527   2.425   1.177  12.615  0.0000  0.0000  0.0000
 2034MPD1   HA915528   2.285   1.185  12.426  0.0000  0.0000  0.0000
 2034MPD1  HN1115529   1.937   1.442  12.708  0.0000  0.0000  0.0000
 2034MPD1  HN1215530   2.445   1.211  12.856  0.0000  0.0000  0.0000
 2034MPD1  HN1315531   2.304   1.248  12.957  0.0000  0.0000  0.0000
 2034MPD1  NB1415532   1.931   1.353  12.660  0.0000  0.0000  0.0000
 2034MPD1  NH1515533   2.355   1.255  12.870  0.0000  0.0000  0.0000
 2035MPD2  CA1615534   3.225  -0.313  13.126  0.0000  0.0000  0.0000
 2035MPD2  CA1715535   3.109  -0.385  13.157  0.0000  0.0000  0.0000
 2035MPD2  CA1815536   3.093  -0.518  13.116  0.0000  0.0000  0.0000
 2035MPD2  CA1915537   3.195  -0.581  13.059  0.0000  0.0000  0.0000
 2035MPD2  CA2015538   3.315  -0.517  13.032  0.0000  0.0000  0.0000
 2035MPD2  CA2115539   3.329  -0.384  13.068  0.0000  0.0000  0.0000
 2035MPD2  HA2215540   3.029  -0.327  13.202  0.0000  0.0000  0.0000
 2035MPD2  HA2315541   3.176  -0.681  13.023  0.0000  0.0000  0.0000
 2035MPD2  HA2415542   3.401  -0.564  12.984  0.0000  0.0000  0.0000
 2035MPD2  HA2515543   3.426  -0.337  13.051  0.0000  0.0000  0.0000
 2035MPD2  HN2615544   3.229  -0.181  13.291  0.0000  0.0000  0.0000
 2035MPD2  HN2715545   2.968  -0.679  13.086  0.0000  0.0000  0.0000
 2035MPD2  NB2815546   3.248  -0.186  13.192  0.0000  0.0000  0.0000
 2035MPD2  NB2915547   2.978  -0.596  13.144  0.0000  0.0000  0.0000
 2036MPD2  CA1615548   2.871  -0.024  12.853  0.0000  0.0000  0.0000
 2036MPD2  CA1715549   2.909  -0.153  12.841  0.0000  0.0000  0.0000
 2036MPD2  CA1815550   2.850  -0.255  12.907  0.0000  0.0000  0.0000
 2036MPD2  CA1915551   2.744  -0.221  12.999  0.0000  0.0000  0.0000
 2036MPD2  CA2015552   2.719  -0.083  13.018  0.0000  0.0000  0.0000
 2036MPD2  CA2115553   2.786   0.014  12.951  0.0000  0.0000  0.0000
 2036MPD2  HA2215554   2.984  -0.175  12.765  0.0000  0.0000  0.0000
 2036MPD2  HA2315555   2.693  -0.297  13.057  0.0000  0.0000  0.0000
 2036MPD2  HA2415556   2.635  -0.057  13.081  0.0000  0.0000  0.0000
 2036MPD2  HA2515557   2.762   0.118  12.971  0.0000  0.0000  0.0000
 2036MPD2  HN2615558   3.042   0.042  12.752  0.0000  0.0000  0.0000
 2036MPD2  HN2715559   2.959  -0.421  12.928  0.0000  0.0000  0.0000
 2036MPD2  NB2815560   2.948   0.069  12.779  0.0000  0.0000  0.0000
 2036MPD2  NB2915561   2.884  -0.384  12.872  0.0000  0.0000  0.0000
 2037MPD1   CA115562   2.439  -0.512  13.495  0.0000  0.0000  0.0000
 2037MPD1   CA215563   2.436  -0.415  13.391  0.0000  0.0000  0.0000
 2037MPD1   CA315564   2.496  -0.288  13.403  0.0000  0.0000  0.0000
 2037MPD1   CA415565   2.561  -0.263  13.525  0.0000  0.0000  0.0000
 2037MPD1   CA515566   2.572  -0.363  13.622  0.0000  0.0000  0.0000
 2037MPD1   CA615567   2.502  -0.483  13.612  0.0000  0.0000  0.0000
 2037MPD1  HA1015568   2.507  -0.553  13.695  0.0000  0.0000  0.0000
 2037MPD1   HA715569   2.387  -0.437  13.297  0.0000  0.0000  0.0000
 2037MPD1   HA815570   2.615  -0.169  13.537  0.0000  0.0000  0.0000
 2037MPD1   HA915571   2.626  -0.339  13.712  0.0000  0.0000  0.0000
 2037MPD1  HN1115572   2.301  -0.668  13.509  0.0000  0.0000  0.0000
 2037MPD1  HN1215573   2.448  -0.219  13.216  0.0000  0.0000  0.0000
 2037MPD1  HN1315574   2.525  -0.103  13.313  0.0000  0.0000  0.0000
 2037MPD1  NB1415575   2.389  -0.642  13.467  0.0000  0.0000  0.0000
 2037MPD1  NH1515576   2.511  -0.201  13.293  0.0000  0.0000  0.0000
 2038MPD2  CA1615577   4.252  -0.014  13.821  0.0000  0.0000  0.0000
 2038MPD2  CA1715578   4.318   0.067  13.721  0.0000  0.0000  0.0000
 2038MPD2  CA1815579   4.456   0.085  13.738  0.0000  0.0000  0.0000
 2038MPD2  CA1915580   4.522   0.024  13.845  0.0000  0.0000  0.0000
 2038MPD2  CA2015581   4.458  -0.055  13.940  0.0000  0.0000  0.0000
 2038MPD2  CA2115582   4.322  -0.066  13.931  0.0000  0.0000  0.0000
 2038MPD2  HA2215583   4.264   0.113  13.639  0.0000  0.0000  0.0000
 2038MPD2  HA2315584   4.629   0.043  13.855  0.0000  0.0000  0.0000
 2038MPD2  HA2415585   4.520  -0.098  14.019  0.0000  0.0000  0.0000
 2038MPD2  HA2515586   4.287  -0.137  14.005  0.0000  0.0000  0.0000
 2038MPD2  HN2615587   4.053   0.036  13.806  0.0000  0.0000  0.0000
 2038MPD2  HN2715588   4.525   0.138  13.534  0.0000  0.0000  0.0000
 2038MPD2  NB2815589   4.115  -0.044  13.810  0.0000  0.0000  0.0000
 2038MPD2  NB2915590   4.532   0.160  13.633  0.0000  0.0000  0.0000
 2039MPD1   CA115591   3.617   0.295  13.995  0.0000  0.0000  0.0000
 2039MPD1   CA215592   3.523   0.339  13.899  0.0000  0.0000  0.0000
 2039MPD1   CA315593   3.464   0.469  13.907  0.0000  0.0000  0.0000
 2039MPD1   CA415594   3.502   0.555  14.007  0.0000  0.0000  0.0000
 2039MPD1   CA515595   3.592   0.513  14.100  0.0000  0.0000  0.0000
 2039MPD1   CA615596   3.651   0.384  14.090  0.0000  0.0000  0.0000
 2039MPD1  HA1015597   3.730   0.362  14.161  0.0000  0.0000  0.0000
 2039MPD1   HA715598   3.500   0.280  13.811  0.0000  0.0000  0.0000
 2039MPD1   HA815599   3.464   0.655  14.022  0.0000  0.0000  0.0000
 2039MPD1   HA915600   3.612   0.566  14.193  0.0000  0.0000  0.0000
 2039MPD1  HN1115601   3.781   0.170  13.987  0.0000  0.0000  0.0000
 2039MPD1  HN1215602   3.352   0.453  13.740  0.0000  0.0000  0.0000
 2039MPD1  HN1315603   3.288   0.564  13.844  0.0000  0.0000  0.0000
 2039MPD1  NB1415604   3.681   0.170  13.973  0.0000  0.0000  0.0000
 2039MPD1  NH1515605   3.372   0.514  13.818  0.0000  0.0000  0.0000
 2040MPD1   CA115606   0.728   1.072  13.509  0.0000  0.0000  0.0000
 2040MPD1   CA215607   0.623   1.078  13.607  0.0000  0.0000  0.0000
 2040MPD1   CA315608   0.509   1.150  13.564  0.0000  0.0000  0.0000
 2040MPD1   CA415609   0.487   1.202  13.440  0.0000  0.0000  0.0000
 2040MPD1   CA515610   0.588   1.184  13.340  0.0000  0.0000  0.0000
 2040MPD1   CA615611   0.711   1.129  13.377  0.0000  0.0000  0.0000
 2040MPD1  HA1015612   0.787   1.110  13.301  0.0000  0.0000  0.0000
 2040MPD1   HA715613   0.633   1.031  13.704  0.0000  0.0000  0.0000
 2040MPD1   HA815614   0.400   1.262  13.414  0.0000  0.0000  0.0000
 2040MPD1   HA915615   0.593   1.224  13.239  0.0000  0.0000  0.0000
 2040MPD1  HN1115616   0.836   0.923  13.607  0.0000  0.0000  0.0000
 2040MPD1  HN1215617   0.412   1.114  13.748  0.0000  0.0000  0.0000
 2040MPD1  HN1315618   0.309   1.145  13.621  0.0000  0.0000  0.0000
 2040MPD1  NB1415619   0.848   1.002  13.544  0.0000  0.0000  0.0000
 2040MPD1  NH1515620   0.401   1.161  13.659  0.0000  0.0000  0.0000
 2041MPD2  CA1615621   4.479  -0.780  12.275  0.0000  0.0000  0.0000
 2041MPD2  CA1715622   4.389  -0.888  12.313  0.0000  0.0000  0.0000
 2041MPD2  CA1815623   4.430  -1.026  12.303  0.0000  0.0000  0.0000
 2041MPD2  CA1915624   4.563  -1.052  12.261  0.0000  0.0000  0.0000
 2041MPD2  CA2015625   4.648  -0.951  12.226  0.0000  0.0000  0.0000
 2041MPD2  CA2115626   4.616  -0.816  12.241  0.0000  0.0000  0.0000
 2041MPD2  HA2215627   4.285  -0.862  12.330  0.0000  0.0000  0.0000
 2041MPD2  HA2315628   4.596  -1.149  12.224  0.0000  0.0000  0.0000
 2041MPD2  HA2415629   4.745  -0.988  12.192  0.0000  0.0000  0.0000
 2041MPD2  HA2515630   4.690  -0.739  12.221  0.0000  0.0000  0.0000
 2041MPD2  HN2615631   4.375  -0.617  12.352  0.0000  0.0000  0.0000
 2041MPD2  HN2715632   4.261  -1.125  12.383  0.0000  0.0000  0.0000
 2041MPD2  NB2815633   4.438  -0.646  12.278  0.0000  0.0000  0.0000
 2041MPD2  NB2915634   4.336  -1.133  12.316  0.0000  0.0000  0.0000
 2042MPD2  CA1615635   3.399  -1.954  13.903  0.0000  0.0000  0.0000
 2042MPD2  CA1715636   3.288  -1.875  13.865  0.0000  0.0000  0.0000
 2042MPD2  CA1815637   3.224  -1.797  13.957  0.0000  0.0000  0.0000
 2042MPD2  CA1915638   3.283  -1.785  14.083  0.0000  0.0000  0.0000
 2042MPD2  CA2015639   3.401  -1.853  14.122  0.0000  0.0000  0.0000
 2042MPD2  CA2115640   3.455  -1.943  14.034  0.0000  0.0000  0.0000
 2042MPD2  HA2215641   3.245  -1.882  13.766  0.0000  0.0000  0.0000
 2042MPD2  HA2315642   3.233  -1.718  14.153  0.0000  0.0000  0.0000
 2042MPD2  HA2415643   3.440  -1.844  14.222  0.0000  0.0000  0.0000
 2042MPD2  HA2515644   3.552  -1.988  14.055  0.0000  0.0000  0.0000
 2042MPD2  HN2615645   3.404  -2.092  13.750  0.0000  0.0000  0.0000
 2042MPD2  HN2715646   3.018  -1.780  13.938  0.0000  0.0000  0.0000
 2042MPD2  NB2815647   3.466  -2.037  13.808  0.0000  0.0000  0.0000
 2042MPD2  NB2915648   3.100  -1.721  13.929  0.0000  0.0000  0.0000
 2043MPD2  CA1615649   5.026  -1.313  13.330  0.0000  0.0000  0.0000
 2043MPD2  CA1715650   4.977  -1.363  13.449  0.0000  0.0000  0.0000
 2043MPD2  CA1815651   4.962  -1.294  13.568  0.0000  0.0000  0.0000
 2043MPD2  CA1915652   5.007  -1.160  13.561  0.0000  0.0000  0.0000
 2043MPD2  CA2015653   5.064  -1.105  13.441  0.0000  0.0000  0.0000
 2043MPD2  CA2115654   5.072  -1.180  13.324  0.0000  0.0000  0.0000
 2043MPD2  HA2215655   4.934  -1.462  13.440  0.0000  0.0000  0.0000
 2043MPD2  HA2315656   4.985  -1.091  13.642  0.0000  0.0000  0.0000
 2043MPD2  HA2415657   5.089  -0.999  13.441  0.0000  0.0000  0.0000
 2043MPD2  HA2515658   5.108  -1.127  13.236  0.0000  0.0000  0.0000
 2043MPD2  HN2615659   4.965  -1.469  13.207  0.0000  0.0000  0.0000
 2043MPD2  HN2715660   4.944  -1.384  13.753  0.0000  0.0000  0.0000
 2043MPD2  NB2815661   5.029  -1.391  13.209  0.0000  0.0000  0.0000
 2043MPD2  NB2915662   4.886  -1.344  13.680  0.0000  0.0000  0.0000
 2044MPD2  CA1615663   1.692   0.921  13.483  0.0000  0.0000  0.0000
 2044MPD2  CA1715664   1.741   0.890  13.354  0.0000  0.0000  0.0000
 2044MPD2  CA1815665   1.876   0.911  13.321  0.0000  0.0000  0.0000
 2044MPD2  CA1915666   1.954   0.985  13.408  0.0000  0.0000  0.0000
 2044MPD2  CA2015667   1.899   1.026  13.528  0.0000  0.0000  0.0000
 2044MPD2  CA2115668   1.774   0.988  13.571  0.0000  0.0000  0.0000
 2044MPD2  HA2215669   1.678   0.849  13.276  0.0000  0.0000  0.0000
 2044MPD2  HA2315670   2.059   1.001  13.383  0.0000  0.0000  0.0000
 2044MPD2  HA2415671   1.952   1.084  13.604  0.0000  0.0000  0.0000
 2044MPD2  HA2515672   1.746   1.009  13.674  0.0000  0.0000  0.0000
 2044MPD2  HN2615673   1.551   0.858  13.619  0.0000  0.0000  0.0000
 2044MPD2  HN2715674   1.850   0.840  13.130  0.0000  0.0000  0.0000
 2044MPD2  NB2815675   1.558   0.893  13.525  0.0000  0.0000  0.0000
 2044MPD2  NB2915676   1.921   0.853  13.201  0.0000  0.0000  0.0000
 2045MPD2  CA1615677   2.375  -1.045  12.563  0.0000  0.0000  0.0000
 2045MPD2  CA1715678   2.399  -1.013  12.698  0.0000  0.0000  0.0000
 2045MPD2  CA1815679   2.438  -0.879  12.728  0.0000  0.0000  0.0000
 2045MPD2  CA1915680   2.440  -0.783  12.627  0.0000  0.0000  0.0000
 2045MPD2  CA2015681   2.424  -0.820  12.496  0.0000  0.0000  0.0000
 2045MPD2  CA2115682   2.399  -0.951  12.454  0.0000  0.0000  0.0000
 2045MPD2  HA2215683   2.410  -1.094  12.771  0.0000  0.0000  0.0000
 2045MPD2  HA2315684   2.451  -0.678  12.652  0.0000  0.0000  0.0000
 2045MPD2  HA2415685   2.467  -0.752  12.423  0.0000  0.0000  0.0000
 2045MPD2  HA2515686   2.389  -0.978  12.349  0.0000  0.0000  0.0000
 2045MPD2  HN2615687   2.436  -1.235  12.532  0.0000  0.0000  0.0000
 2045MPD2  HN2715688   2.385  -0.794  12.916  0.0000  0.0000  0.0000
 2045MPD2  NB2815689   2.352  -1.178  12.532  0.0000  0.0000  0.0000
 2045MPD2  NB2915690   2.459  -0.837  12.863  0.0000  0.0000  0.0000
 2046MPD2  CA1615691   3.340  -0.499  12.575  0.0000  0.0000  0.0000
 2046MPD2  CA1715692   3.388  -0.532  12.449  0.0000  0.0000  0.0000
 2046MPD2  CA1815693   3.364  -0.461  12.331  0.0000  0.0000  0.0000
 2046MPD2  CA1915694   3.292  -0.345  12.344  0.0000  0.0000  0.0000
 2046MPD2  CA2015695   3.233  -0.309  12.469  0.0000  0.0000  0.0000
 2046MPD2  CA2115696   3.258  -0.385  12.582  0.0000  0.0000  0.0000
 2046MPD2  HA2215697   3.455  -0.617  12.431  0.0000  0.0000  0.0000
 2046MPD2  HA2315698   3.259  -0.289  12.257  0.0000  0.0000  0.0000
 2046MPD2  HA2415699   3.169  -0.221  12.475  0.0000  0.0000  0.0000
 2046MPD2  HA2515700   3.227  -0.346  12.679  0.0000  0.0000  0.0000
 2046MPD2  HN2615701   3.449  -0.554  12.743  0.0000  0.0000  0.0000
 2046MPD2  HN2715702   3.447  -0.599  12.199  0.0000  0.0000  0.0000
 2046MPD2  NB2815703   3.366  -0.577  12.690  0.0000  0.0000  0.0000
 2046MPD2  NB2915704   3.412  -0.504  12.202  0.0000  0.0000  0.0000
 2047MPD2  CA1615705   2.395   0.058  13.416  0.0000  0.0000  0.0000
 2047MPD2  CA1715706   2.396   0.102  13.285  0.0000  0.0000  0.0000
 2047MPD2  CA1815707   2.508   0.156  13.226  0.0000  0.0000  0.0000
 2047MPD2  CA1915708   2.627   0.145  13.299  0.0000  0.0000  0.0000
 2047MPD2  CA2015709   2.627   0.106  13.431  0.0000  0.0000  0.0000
 2047MPD2  CA2115710   2.507   0.066  13.495  0.0000  0.0000  0.0000
 2047MPD2  HA2215711   2.302   0.092  13.232  0.0000  0.0000  0.0000
 2047MPD2  HA2315712   2.714   0.160  13.235  0.0000  0.0000  0.0000
 2047MPD2  HA2415713   2.724   0.086  13.476  0.0000  0.0000  0.0000
 2047MPD2  HA2515714   2.500   0.025  13.595  0.0000  0.0000  0.0000
 2047MPD2  HN2615715   2.279  -0.079  13.522  0.0000  0.0000  0.0000
 2047MPD2  HN2715716   2.521   0.170  13.018  0.0000  0.0000  0.0000
 2047MPD2  NB2815717   2.270   0.007  13.468  0.0000  0.0000  0.0000
 2047MPD2  NB2915718   2.503   0.222  13.103  0.0000  0.0000  0.0000
 2048MPD2  CA1615719   2.851   0.645  11.503  0.0000  0.0000  0.0000
 2048MPD2  CA1715720   2.983   0.642  11.553  0.0000  0.0000  0.0000
 2048MPD2  CA1815721   3.064   0.527  11.546  0.0000  0.0000  0.0000
 2048MPD2  CA1915722   3.033   0.427  11.451  0.0000  0.0000  0.0000
 2048MPD2  CA2015723   2.913   0.436  11.378  0.0000  0.0000  0.0000
 2048MPD2  CA2115724   2.820   0.542  11.409  0.0000  0.0000  0.0000
 2048MPD2  HA2215725   3.007   0.729  11.614  0.0000  0.0000  0.0000
 2048MPD2  HA2315726   3.089   0.335  11.436  0.0000  0.0000  0.0000
 2048MPD2  HA2415727   2.886   0.368  11.298  0.0000  0.0000  0.0000
 2048MPD2  HA2515728   2.733   0.548  11.344  0.0000  0.0000  0.0000
 2048MPD2  HN2615729   2.670   0.760  11.538  0.0000  0.0000  0.0000
 2048MPD2  HN2715730   3.257   0.466  11.532  0.0000  0.0000  0.0000
 2048MPD2  NB2815731   2.763   0.762  11.499  0.0000  0.0000  0.0000
 2048MPD2  NB2915732   3.194   0.507  11.600  0.0000  0.0000  0.0000
 2049MPD2  CA1615733   0.552  -0.209  12.937  0.0000  0.0000  0.0000
 2049MPD2  CA1715734   0.680  -0.245  12.988  0.0000  0.0000  0.0000
 2049MPD2  CA1815735   0.761  -0.338  12.923  0.0000  0.0000  0.0000
 2049MPD2  CA1915736   0.729  -0.377  12.790  0.0000  0.0000  0.0000
 2049MPD2  CA2015737   0.605  -0.333  12.736  0.0000  0.0000  0.0000
 2049MPD2  CA2115738   0.520  -0.257  12.809  0.0000  0.0000  0.0000
 2049MPD2  HA2215739   0.713  -0.202  13.082  0.0000  0.0000  0.0000
 2049MPD2  HA2315740   0.791  -0.448  12.737  0.0000  0.0000  0.0000
 2049MPD2  HA2415741   0.577  -0.365  12.637  0.0000  0.0000  0.0000
 2049MPD2  HA2515742   0.426  -0.235  12.759  0.0000  0.0000  0.0000
 2049MPD2  HN2615743   0.454  -0.152  13.102  0.0000  0.0000  0.0000
 2049MPD2  HN2715744   0.939  -0.314  13.031  0.0000  0.0000  0.0000
 2049MPD2  NB2815745   0.471  -0.121  13.007  0.0000  0.0000  0.0000
 2049MPD2  NB2915746   0.878  -0.384  12.991  0.0000  0.0000  0.0000
 2050MPD2  CA1615747   4.088   0.279  14.134  0.0000  0.0000  0.0000
 2050MPD2  CA1715748   4.081   0.141  14.118  0.0000  0.0000  0.0000
 2050MPD2  CA1815749   4.123   0.049  14.207  0.0000  0.0000  0.0000
 2050MPD2  CA1915750   4.191   0.089  14.325  0.0000  0.0000  0.0000
 2050MPD2  CA2015751   4.214   0.222  14.336  0.0000  0.0000  0.0000
 2050MPD2  CA2115752   4.159   0.320  14.251  0.0000  0.0000  0.0000
 2050MPD2  HA2215753   4.027   0.098  14.034  0.0000  0.0000  0.0000
 2050MPD2  HA2315754   4.228   0.017  14.398  0.0000  0.0000  0.0000
 2050MPD2  HA2415755   4.247   0.259  14.432  0.0000  0.0000  0.0000
 2050MPD2  HA2515756   4.167   0.427  14.266  0.0000  0.0000  0.0000
 2050MPD2  HN2615757   4.036   0.475  14.089  0.0000  0.0000  0.0000
 2050MPD2  HN2715758   4.159  -0.158  14.204  0.0000  0.0000  0.0000
 2050MPD2  NB2815759   4.027   0.380  14.056  0.0000  0.0000  0.0000
 2050MPD2  NB2915760   4.082  -0.093  14.197  0.0000  0.0000  0.0000
 2051MPD1   CA115761   4.747  -1.548  12.769  0.0000  0.0000  0.0000
 2051MPD1   CA215762   4.849  -1.481  12.694  0.0000  0.0000  0.0000
 2051MPD1   CA315763   4.919  -1.375  12.750  0.0000  0.0000  0.0000
 2051MPD1   CA415764   4.873  -1.321  12.878  0.0000  0.0000  0.0000
 2051MPD1   CA515765   4.779  -1.386  12.954  0.0000  0.0000  0.0000
 2051MPD1   CA615766   4.718  -1.505  12.901  0.0000  0.0000  0.0000
 2051MPD1  HA1015767   4.647  -1.554  12.967  0.0000  0.0000  0.0000
 2051MPD1   HA715768   4.886  -1.516  12.598  0.0000  0.0000  0.0000
 2051MPD1   HA815769   4.913  -1.225  12.908  0.0000  0.0000  0.0000
 2051MPD1   HA915770   4.756  -1.335  13.047  0.0000  0.0000  0.0000
 2051MPD1  HN1115771   4.750  -1.700  12.631  0.0000  0.0000  0.0000
 2051MPD1  HN1215772   4.994  -1.298  12.577  0.0000  0.0000  0.0000
 2051MPD1  HN1315773   5.030  -1.219  12.718  0.0000  0.0000  0.0000
 2051MPD1  NB1415774   4.697  -1.669  12.711  0.0000  0.0000  0.0000
 2051MPD1  NH1515775   5.016  -1.309  12.675  0.0000  0.0000  0.0000
 2052MPD2  CA1615776   1.485  -0.435  13.900  0.0000  0.0000  0.0000
 2052MPD2  CA1715777   1.397  -0.407  14.006  0.0000  0.0000  0.0000
 2052MPD2  CA1815778   1.330  -0.280  14.013  0.0000  0.0000  0.0000
 2052MPD2  CA1915779   1.355  -0.181  13.917  0.0000  0.0000  0.0000
 2052MPD2  CA2015780   1.436  -0.211  13.808  0.0000  0.0000  0.0000
 2052MPD2  CA2115781   1.499  -0.340  13.800  0.0000  0.0000  0.0000
 2052MPD2  HA2215782   1.387  -0.481  14.085  0.0000  0.0000  0.0000
 2052MPD2  HA2315783   1.310  -0.084  13.938  0.0000  0.0000  0.0000
 2052MPD2  HA2415784   1.450  -0.136  13.730  0.0000  0.0000  0.0000
 2052MPD2  HA2515785   1.567  -0.360  13.719  0.0000  0.0000  0.0000
 2052MPD2  HN2615786   1.498  -0.636  13.925  0.0000  0.0000  0.0000
 2052MPD2  HN2715787   1.290  -0.245  14.214  0.0000  0.0000  0.0000
 2052MPD2  NB2815788   1.553  -0.556  13.895  0.0000  0.0000  0.0000
 2052MPD2  NB2915789   1.245  -0.248  14.124  0.0000  0.0000  0.0000
 2053MPD2  CA1615790   3.696  -1.406  12.550  0.0000  0.0000  0.0000
 2053MPD2  CA1715791   3.579  -1.444  12.482  0.0000  0.0000  0.0000
 2053MPD2  CA1815792   3.452  -1.394  12.521  0.0000  0.0000  0.0000
 2053MPD2  CA1915793   3.443  -1.305  12.628  0.0000  0.0000  0.0000
 2053MPD2  CA2015794   3.552  -1.273  12.708  0.0000  0.0000  0.0000
 2053MPD2  CA2115795   3.676  -1.322  12.668  0.0000  0.0000  0.0000
 2053MPD2  HA2215796   3.587  -1.518  12.403  0.0000  0.0000  0.0000
 2053MPD2  HA2315797   3.346  -1.260  12.650  0.0000  0.0000  0.0000
 2053MPD2  HA2415798   3.552  -1.206  12.794  0.0000  0.0000  0.0000
 2053MPD2  HA2515799   3.760  -1.284  12.726  0.0000  0.0000  0.0000
 2053MPD2  HN2615800   3.833  -1.467  12.395  0.0000  0.0000  0.0000
 2053MPD2  HN2715801   3.266  -1.351  12.438  0.0000  0.0000  0.0000
 2053MPD2  NB2815802   3.826  -1.441  12.493  0.0000  0.0000  0.0000
 2053MPD2  NB2915803   3.333  -1.426  12.447  0.0000  0.0000  0.0000
 2054MPD2  CA1615804   4.884  -1.076  12.455  0.0000  0.0000  0.0000
 2054MPD2  CA1715805   4.778  -1.125  12.531  0.0000  0.0000  0.0000
 2054MPD2  CA1815806   4.717  -1.248  12.500  0.0000  0.0000  0.0000
 2054MPD2  CA1915807   4.773  -1.327  12.395  0.0000  0.0000  0.0000
 2054MPD2  CA2015808   4.891  -1.283  12.338  0.0000  0.0000  0.0000
 2054MPD2  CA2115809   4.939  -1.157  12.354  0.0000  0.0000  0.0000
 2054MPD2  HA2215810   4.730  -1.063  12.605  0.0000  0.0000  0.0000
 2054MPD2  HA2315811   4.728  -1.422  12.365  0.0000  0.0000  0.0000
 2054MPD2  HA2415812   4.941  -1.347  12.266  0.0000  0.0000  0.0000
 2054MPD2  HA2515813   5.025  -1.134  12.290  0.0000  0.0000  0.0000
 2054MPD2  HN2615814   4.932  -0.877  12.404  0.0000  0.0000  0.0000
 2054MPD2  HN2715815   4.595  -1.239  12.665  0.0000  0.0000  0.0000
 2054MPD2  NB2815816   4.940  -0.947  12.477  0.0000  0.0000  0.0000
 2054MPD2  NB2915817   4.606  -1.286  12.576  0.0000  0.0000  0.0000
 2055MPD2  CA1615818   2.608  -0.087  11.468  0.0000  0.0000  0.0000
 2055MPD2  CA1715819   2.748  -0.113  11.447  0.0000  0.0000  0.0000
 2055MPD2  CA1815820   2.841  -0.010  11.444  0.0000  0.0000  0.0000
 2055MPD2  CA1915821   2.801   0.122  11.463  0.0000  0.0000  0.0000
 2055MPD2  CA2015822   2.665   0.151  11.466  0.0000  0.0000  0.0000
 2055MPD2  CA2115823   2.572   0.049  11.469  0.0000  0.0000  0.0000
 2055MPD2  HA2215824   2.778  -0.215  11.426  0.0000  0.0000  0.0000
 2055MPD2  HA2315825   2.873   0.204  11.460  0.0000  0.0000  0.0000
 2055MPD2  HA2415826   2.632   0.254  11.477  0.0000  0.0000  0.0000
 2055MPD2  HA2515827   2.469   0.085  11.476  0.0000  0.0000  0.0000
 2055MPD2  HN2615828   2.529  -0.266  11.389  0.0000  0.0000  0.0000
 2055MPD2  HN2715829   3.030   0.056  11.456  0.0000  0.0000  0.0000
 2055MPD2  NB2815830   2.507  -0.190  11.452  0.0000  0.0000  0.0000
 2055MPD2  NB2915831   2.982  -0.029  11.430  0.0000  0.0000  0.0000
 2056MPD2  CA1615832   2.394  -1.228  14.098  0.0000  0.0000  0.0000
 2056MPD2  CA1715833   2.298  -1.151  14.034  0.0000  0.0000  0.0000
 2056MPD2  CA1815834   2.235  -1.033  14.090  0.0000  0.0000  0.0000
 2056MPD2  CA1915835   2.268  -0.998  14.218  0.0000  0.0000  0.0000
 2056MPD2  CA2015836   2.356  -1.080  14.288  0.0000  0.0000  0.0000
 2056MPD2  CA2115837   2.418  -1.192  14.232  0.0000  0.0000  0.0000
 2056MPD2  HA2215838   2.271  -1.188  13.936  0.0000  0.0000  0.0000
 2056MPD2  HA2315839   2.219  -0.914  14.265  0.0000  0.0000  0.0000
 2056MPD2  HA2415840   2.378  -1.060  14.393  0.0000  0.0000  0.0000
 2056MPD2  HA2515841   2.483  -1.246  14.300  0.0000  0.0000  0.0000
 2056MPD2  HN2615842   2.389  -1.413  14.016  0.0000  0.0000  0.0000
 2056MPD2  HN2715843   2.089  -1.040  13.943  0.0000  0.0000  0.0000
 2056MPD2  NB2815844   2.454  -1.337  14.035  0.0000  0.0000  0.0000
 2056MPD2  NB2915845   2.126  -0.981  14.017  0.0000  0.0000  0.0000
 2057MPD2  CA1615846   1.758  -0.601  11.572  0.0000  0.0000  0.0000
 2057MPD2  CA1715847   1.676  -0.542  11.663  0.0000  0.0000  0.0000
 2057MPD2  CA1815848   1.559  -0.599  11.718  0.0000  0.0000  0.0000
 2057MPD2  CA1915849   1.526  -0.731  11.673  0.0000  0.0000  0.0000
 2057MPD2  CA2015850   1.603  -0.791  11.569  0.0000  0.0000  0.0000
 2057MPD2  CA2115851   1.710  -0.715  11.512  0.0000  0.0000  0.0000
 2057MPD2  HA2215852   1.703  -0.446  11.707  0.0000  0.0000  0.0000
 2057MPD2  HA2315853   1.445  -0.783  11.722  0.0000  0.0000  0.0000
 2057MPD2  HA2415854   1.577  -0.886  11.524  0.0000  0.0000  0.0000
 2057MPD2  HA2515855   1.770  -0.763  11.435  0.0000  0.0000  0.0000
 2057MPD2  HN2615856   1.925  -0.606  11.452  0.0000  0.0000  0.0000
 2057MPD2  HN2715857   1.381  -0.524  11.788  0.0000  0.0000  0.0000
 2057MPD2  NB2815858   1.878  -0.548  11.520  0.0000  0.0000  0.0000
 2057MPD2  NB2915859   1.476  -0.543  11.820  0.0000  0.0000  0.0000
 2058MPD2  CA1615860   4.285  -2.231  12.529  0.0000  0.0000  0.0000
 2058MPD2  CA1715861   4.162  -2.167  12.528  0.0000  0.0000  0.0000
 2058MPD2  CA1815862   4.110  -2.119  12.407  0.0000  0.0000  0.0000
 2058MPD2  CA1915863   4.175  -2.143  12.291  0.0000  0.0000  0.0000
 2058MPD2  CA2015864   4.294  -2.220  12.289  0.0000  0.0000  0.0000
 2058MPD2  CA2115865   4.343  -2.271  12.408  0.0000  0.0000  0.0000
 2058MPD2  HA2215866   4.109  -2.150  12.621  0.0000  0.0000  0.0000
 2058MPD2  HA2315867   4.127  -2.123  12.196  0.0000  0.0000  0.0000
 2058MPD2  HA2415868   4.343  -2.238  12.194  0.0000  0.0000  0.0000
 2058MPD2  HA2515869   4.428  -2.339  12.406  0.0000  0.0000  0.0000
 2058MPD2  HN2615870   4.307  -2.378  12.674  0.0000  0.0000  0.0000
 2058MPD2  HN2715871   3.995  -1.979  12.336  0.0000  0.0000  0.0000
 2058MPD2  NB2815872   4.345  -2.288  12.646  0.0000  0.0000  0.0000
 2058MPD2  NB2915873   3.988  -2.057  12.400  0.0000  0.0000  0.0000
 2059MPD2  CA1615874   3.389  -0.940  14.097  0.0000  0.0000  0.0000
 2059MPD2  CA1715875   3.494  -0.850  14.070  0.0000  0.0000  0.0000
 2059MPD2  CA1815876   3.493  -0.717  14.124  0.0000  0.0000  0.0000
 2059MPD2  CA1915877   3.386  -0.677  14.200  0.0000  0.0000  0.0000
 2059MPD2  CA2015878   3.278  -0.770  14.228  0.0000  0.0000  0.0000
 2059MPD2  CA2115879   3.281  -0.894  14.175  0.0000  0.0000  0.0000
 2059MPD2  HA2215880   3.585  -0.873  14.014  0.0000  0.0000  0.0000
 2059MPD2  HA2315881   3.369  -0.578  14.240  0.0000  0.0000  0.0000
 2059MPD2  HA2415882   3.194  -0.747  14.293  0.0000  0.0000  0.0000
 2059MPD2  HA2515883   3.197  -0.960  14.200  0.0000  0.0000  0.0000
 2059MPD2  HN2615884   3.473  -1.100  13.995  0.0000  0.0000  0.0000
 2059MPD2  HN2715885   3.669  -0.656  14.016  0.0000  0.0000  0.0000
 2059MPD2  NB2815886   3.384  -1.062  14.025  0.0000  0.0000  0.0000
 2059MPD2  NB2915887   3.603  -0.627  14.087  0.0000  0.0000  0.0000
 2060MPD2  CA1615888   2.676  -1.656  13.342  0.0000  0.0000  0.0000
 2060MPD2  CA1715889   2.548  -1.703  13.364  0.0000  0.0000  0.0000
 2060MPD2  CA1815890   2.440  -1.619  13.384  0.0000  0.0000  0.0000
 2060MPD2  CA1915891   2.456  -1.486  13.413  0.0000  0.0000  0.0000
 2060MPD2  CA2015892   2.590  -1.438  13.395  0.0000  0.0000  0.0000
 2060MPD2  CA2115893   2.692  -1.516  13.345  0.0000  0.0000  0.0000
 2060MPD2  HA2215894   2.519  -1.808  13.362  0.0000  0.0000  0.0000
 2060MPD2  HA2315895   2.373  -1.429  13.452  0.0000  0.0000  0.0000
 2060MPD2  HA2415896   2.605  -1.332  13.410  0.0000  0.0000  0.0000
 2060MPD2  HA2515897   2.789  -1.470  13.329  0.0000  0.0000  0.0000
 2060MPD2  HN2615898   2.751  -1.835  13.277  0.0000  0.0000  0.0000
 2060MPD2  HN2715899   2.282  -1.703  13.485  0.0000  0.0000  0.0000
 2060MPD2  NB2815900   2.783  -1.746  13.313  0.0000  0.0000  0.0000
 2060MPD2  NB2915901   2.303  -1.668  13.393  0.0000  0.0000  0.0000
 2061MPD2  CA1615902   4.602   0.346  13.123  0.0000  0.0000  0.0000
 2061MPD2  CA1715903   4.566   0.211  13.099  0.0000  0.0000  0.0000
 2061MPD2  CA1815904   4.618   0.142  12.990  0.0000  0.0000  0.0000
 2061MPD2  CA1915905   4.704   0.208  12.899  0.0000  0.0000  0.0000
 2061MPD2  CA2015906   4.732   0.345  12.914  0.0000  0.0000  0.0000
 2061MPD2  CA2115907   4.680   0.413  13.025  0.0000  0.0000  0.0000
 2061MPD2  HA2215908   4.497   0.160  13.165  0.0000  0.0000  0.0000
 2061MPD2  HA2315909   4.765   0.157  12.824  0.0000  0.0000  0.0000
 2061MPD2  HA2415910   4.807   0.387  12.847  0.0000  0.0000  0.0000
 2061MPD2  HA2515911   4.713   0.516  13.034  0.0000  0.0000  0.0000
 2061MPD2  HN2615912   4.631   0.500  13.254  0.0000  0.0000  0.0000
 2061MPD2  HN2715913   4.487  -0.026  12.998  0.0000  0.0000  0.0000
 2061MPD2  NB2815914   4.566   0.426  13.231  0.0000  0.0000  0.0000
 2061MPD2  NB2915915   4.580   0.001  12.969  0.0000  0.0000  0.0000
 2062MPD2  CA1615916   3.009  -2.282  12.572  0.0000  0.0000  0.0000
 2062MPD2  CA1715917   3.126  -2.212  12.539  0.0000  0.0000  0.0000
 2062MPD2  CA1815918   3.224  -2.273  12.452  0.0000  0.0000  0.0000
 2062MPD2  CA1915919   3.192  -2.402  12.397  0.0000  0.0000  0.0000
 2062MPD2  CA2015920   3.073  -2.464  12.424  0.0000  0.0000  0.0000
 2062MPD2  CA2115921   2.980  -2.407  12.511  0.0000  0.0000  0.0000
 2062MPD2  HA2215922   3.147  -2.115  12.584  0.0000  0.0000  0.0000
 2062MPD2  HA2315923   3.269  -2.453  12.339  0.0000  0.0000  0.0000
 2062MPD2  HA2415924   3.045  -2.558  12.378  0.0000  0.0000  0.0000
 2062MPD2  HA2515925   2.883  -2.456  12.526  0.0000  0.0000  0.0000
 2062MPD2  HN2615926   2.976  -2.229  12.762  0.0000  0.0000  0.0000
 2062MPD2  HN2715927   3.430  -2.272  12.441  0.0000  0.0000  0.0000
 2062MPD2  NB2815928   2.928  -2.226  12.673  0.0000  0.0000  0.0000
 2062MPD2  NB2915929   3.353  -2.210  12.420  0.0000  0.0000  0.0000
 2063MPD2  CA1615930   3.947   1.218  13.192  0.0000  0.0000  0.0000
 2063MPD2  CA1715931   3.839   1.130  13.183  0.0000  0.0000  0.0000
 2063MPD2  CA1815932   3.856   0.994  13.151  0.0000  0.0000  0.0000
 2063MPD2  CA1915933   3.986   0.946  13.132  0.0000  0.0000  0.0000
 2063MPD2  CA2015934   4.095   1.034  13.152  0.0000  0.0000  0.0000
 2063MPD2  CA2115935   4.078   1.168  13.185  0.0000  0.0000  0.0000
 2063MPD2  HA2215936   3.741   1.174  13.197  0.0000  0.0000  0.0000
 2063MPD2  HA2315937   4.001   0.842  13.104  0.0000  0.0000  0.0000
 2063MPD2  HA2415938   4.197   0.997  13.139  0.0000  0.0000  0.0000
 2063MPD2  HA2515939   4.158   1.241  13.187  0.0000  0.0000  0.0000
 2063MPD2  HN2615940   3.942   1.398  13.287  0.0000  0.0000  0.0000
 2063MPD2  HN2715941   3.773   0.808  13.116  0.0000  0.0000  0.0000
 2063MPD2  NB2815942   3.911   1.352  13.202  0.0000  0.0000  0.0000
 2063MPD2  NB2915943   3.748   0.900  13.151  0.0000  0.0000  0.0000
 2064MPD2  CA1615944   2.733  -1.092  12.553  0.0000  0.0000  0.0000
 2064MPD2  CA1715945   2.737  -1.193  12.652  0.0000  0.0000  0.0000
 2064MPD2  CA1815946   2.705  -1.324  12.616  0.0000  0.0000  0.0000
 2064MPD2  CA1915947   2.662  -1.356  12.489  0.0000  0.0000  0.0000
 2064MPD2  CA2015948   2.658  -1.255  12.394  0.0000  0.0000  0.0000
 2064MPD2  CA2115949   2.689  -1.120  12.424  0.0000  0.0000  0.0000
 2064MPD2  HA2215950   2.768  -1.177  12.755  0.0000  0.0000  0.0000
 2064MPD2  HA2315951   2.641  -1.460  12.464  0.0000  0.0000  0.0000
 2064MPD2  HA2415952   2.617  -1.284  12.297  0.0000  0.0000  0.0000
 2064MPD2  HA2515953   2.676  -1.037  12.356  0.0000  0.0000  0.0000
 2064MPD2  HN2615954   2.723  -0.915  12.659  0.0000  0.0000  0.0000
 2064MPD2  HN2715955   2.631  -1.494  12.709  0.0000  0.0000  0.0000
 2064MPD2  NB2815956   2.773  -0.960  12.583  0.0000  0.0000  0.0000
 2064MPD2  NB2915957   2.715  -1.437  12.703  0.0000  0.0000  0.0000
 2065MPD1   CA115958   1.398  -1.016  13.264  0.0000  0.0000  0.0000
 2065MPD1   CA215959   1.424  -1.072  13.392  0.0000  0.0000  0.0000
 2065MPD1   CA315960   1.500  -1.188  13.401  0.0000  0.0000  0.0000
 2065MPD1   CA415961   1.552  -1.248  13.288  0.0000  0.0000  0.0000
 2065MPD1   CA515962   1.528  -1.186  13.162  0.0000  0.0000  0.0000
 2065MPD1   CA615963   1.453  -1.071  13.148  0.0000  0.0000  0.0000
 2065MPD1  HA1015964   1.439  -1.021  13.053  0.0000  0.0000  0.0000
 2065MPD1   HA715965   1.386  -1.015  13.476  0.0000  0.0000  0.0000
 2065MPD1   HA815966   1.605  -1.343  13.287  0.0000  0.0000  0.0000
 2065MPD1   HA915967   1.569  -1.236  13.075  0.0000  0.0000  0.0000
 2065MPD1  HN1115968   1.366  -0.815  13.336  0.0000  0.0000  0.0000
 2065MPD1  HN1215969   1.492  -1.200  13.591  0.0000  0.0000  0.0000
 2065MPD1  HN1315970   1.594  -1.305  13.529  0.0000  0.0000  0.0000
 2065MPD1  NB1415971   1.333  -0.884  13.271  0.0000  0.0000  0.0000
 2065MPD1  NH1515972   1.503  -1.264  13.513  0.0000  0.0000  0.0000
 2066MPD2  CA1615973   2.853  -1.216  12.063  0.0000  0.0000  0.0000
 2066MPD2  CA1715974   2.860  -1.076  12.077  0.0000  0.0000  0.0000
 2066MPD2  CA1815975   2.825  -0.994  11.967  0.0000  0.0000  0.0000
 2066MPD2  CA1915976   2.773  -1.050  11.854  0.0000  0.0000  0.0000
 2066MPD2  CA2015977   2.768  -1.188  11.838  0.0000  0.0000  0.0000
 2066MPD2  CA2115978   2.805  -1.274  11.947  0.0000  0.0000  0.0000
 2066MPD2  HA2215979   2.893  -1.041  12.175  0.0000  0.0000  0.0000
 2066MPD2  HA2315980   2.735  -0.992  11.771  0.0000  0.0000  0.0000
 2066MPD2  HA2415981   2.738  -1.239  11.747  0.0000  0.0000  0.0000
 2066MPD2  HA2515982   2.803  -1.382  11.930  0.0000  0.0000  0.0000
 2066MPD2  HN2615983   2.967  -1.252  12.227  0.0000  0.0000  0.0000
 2066MPD2  HN2715984   2.931  -0.821  11.957  0.0000  0.0000  0.0000
 2066MPD2  NB2815985   2.911  -1.302  12.160  0.0000  0.0000  0.0000
 2066MPD2  NB2915986   2.837  -0.851  11.976  0.0000  0.0000  0.0000
 2067MPD2  CA1615987   1.703  -1.597  12.513  0.0000  0.0000  0.0000
 2067MPD2  CA1715988   1.600  -1.528  12.584  0.0000  0.0000  0.0000
 2067MPD2  CA1815989   1.468  -1.525  12.541  0.0000  0.0000  0.0000
 2067MPD2  CA1915990   1.445  -1.602  12.428  0.0000  0.0000  0.0000
 2067MPD2  CA2015991   1.542  -1.687  12.358  0.0000  0.0000  0.0000
 2067MPD2  CA2115992   1.676  -1.674  12.398  0.0000  0.0000  0.0000
 2067MPD2  HA2215993   1.622  -1.473  12.675  0.0000  0.0000  0.0000
 2067MPD2  HA2315994   1.346  -1.600  12.384  0.0000  0.0000  0.0000
 2067MPD2  HA2415995   1.505  -1.754  12.281  0.0000  0.0000  0.0000
 2067MPD2  HA2515996   1.757  -1.729  12.351  0.0000  0.0000  0.0000
 2067MPD2  HN2615997   1.871  -1.472  12.536  0.0000  0.0000  0.0000
 2067MPD2  HN2715998   1.279  -1.505  12.624  0.0000  0.0000  0.0000
 2067MPD2  NB2815999   1.834  -1.565  12.550  0.0000  0.0000  0.0000
 2067MPD2  NB2916000   1.362  -1.450  12.608  0.0000  0.0000  0.0000
 2068MPD2  CA1616001   4.503  -0.765  13.867  0.0000  0.0000  0.0000
 2068MPD2  CA1716002   4.374  -0.711  13.885  0.0000  0.0000  0.0000
 2068MPD2  CA1816003   4.357  -0.591  13.955  0.0000  0.0000  0.0000
 2068MPD2  CA1916004   4.464  -0.528  14.014  0.0000  0.0000  0.0000
 2068MPD2  CA2016005   4.593  -0.583  13.997  0.0000  0.0000  0.0000
 2068MPD2  CA2116006   4.618  -0.696  13.914  0.0000  0.0000  0.0000
 2068MPD2  HA2216007   4.291  -0.767  13.842  0.0000  0.0000  0.0000
 2068MPD2  HA2316008   4.457  -0.440  14.076  0.0000  0.0000  0.0000
 2068MPD2  HA2416009   4.683  -0.534  14.033  0.0000  0.0000  0.0000
 2068MPD2  HA2516010   4.721  -0.725  13.896  0.0000  0.0000  0.0000
 2068MPD2  HN2616011   4.588  -0.959  13.843  0.0000  0.0000  0.0000
 2068MPD2  HN2716012   4.239  -0.427  13.996  0.0000  0.0000  0.0000
 2068MPD2  NB2816013   4.521  -0.895  13.802  0.0000  0.0000  0.0000
 2068MPD2  NB2916014   4.232  -0.526  13.979  0.0000  0.0000  0.0000
 2069MPD2  CA1616015   4.279  -1.225  13.447  0.0000  0.0000  0.0000
 2069MPD2  CA1716016   4.257  -1.276  13.319  0.0000  0.0000  0.0000
 2069MPD2  CA1816017   4.319  -1.394  13.272  0.0000  0.0000  0.0000
 2069MPD2  CA1916018   4.389  -1.478  13.357  0.0000  0.0000  0.0000
 2069MPD2  CA2016019   4.403  -1.436  13.493  0.0000  0.0000  0.0000
 2069MPD2  CA2116020   4.351  -1.312  13.531  0.0000  0.0000  0.0000
 2069MPD2  HA2216021   4.192  -1.220  13.252  0.0000  0.0000  0.0000
 2069MPD2  HA2316022   4.442  -1.566  13.323  0.0000  0.0000  0.0000
 2069MPD2  HA2416023   4.457  -1.494  13.567  0.0000  0.0000  0.0000
 2069MPD2  HA2516024   4.358  -1.281  13.635  0.0000  0.0000  0.0000
 2069MPD2  HN2616025   4.160  -1.141  13.590  0.0000  0.0000  0.0000
 2069MPD2  HN2716026   4.316  -1.529  13.115  0.0000  0.0000  0.0000
 2069MPD2  NB2816027   4.208  -1.116  13.505  0.0000  0.0000  0.0000
 2069MPD2  NB2916028   4.324  -1.430  13.135  0.0000  0.0000  0.0000
 2070MPD2  CA1616029   3.795  -1.645  11.963  0.0000  0.0000  0.0000
 2070MPD2  CA1716030   3.875  -1.544  12.021  0.0000  0.0000  0.0000
 2070MPD2  CA1816031   3.901  -1.425  11.946  0.0000  0.0000  0.0000
 2070MPD2  CA1916032   3.859  -1.412  11.810  0.0000  0.0000  0.0000
 2070MPD2  CA2016033   3.779  -1.516  11.754  0.0000  0.0000  0.0000
 2070MPD2  CA2116034   3.750  -1.630  11.830  0.0000  0.0000  0.0000
 2070MPD2  HA2216035   3.917  -1.554  12.120  0.0000  0.0000  0.0000
 2070MPD2  HA2316036   3.891  -1.330  11.747  0.0000  0.0000  0.0000
 2070MPD2  HA2416037   3.742  -1.519  11.652  0.0000  0.0000  0.0000
 2070MPD2  HA2516038   3.688  -1.707  11.786  0.0000  0.0000  0.0000
 2070MPD2  HN2616039   3.825  -1.781  12.122  0.0000  0.0000  0.0000
 2070MPD2  HN2716040   4.012  -1.244  11.944  0.0000  0.0000  0.0000
 2070MPD2  NB2816041   3.771  -1.769  12.037  0.0000  0.0000  0.0000
 2070MPD2  NB2916042   3.960  -1.307  12.004  0.0000  0.0000  0.0000
 2071MPD1   CA116043   1.495  -0.357  12.598  0.0000  0.0000  0.0000
 2071MPD1   CA216044   1.476  -0.264  12.492  0.0000  0.0000  0.0000
 2071MPD1   CA316045   1.435  -0.314  12.373  0.0000  0.0000  0.0000
 2071MPD1   CA416046   1.401  -0.448  12.358  0.0000  0.0000  0.0000
 2071MPD1   CA516047   1.418  -0.541  12.460  0.0000  0.0000  0.0000
 2071MPD1   CA616048   1.453  -0.493  12.585  0.0000  0.0000  0.0000
 2071MPD1  HA1016049   1.464  -0.561  12.669  0.0000  0.0000  0.0000
 2071MPD1   HA716050   1.506  -0.161  12.506  0.0000  0.0000  0.0000
 2071MPD1   HA816051   1.371  -0.502  12.269  0.0000  0.0000  0.0000
 2071MPD1   HA916052   1.403  -0.648  12.445  0.0000  0.0000  0.0000
 2071MPD1  HN1116053   1.622  -0.392  12.760  0.0000  0.0000  0.0000
 2071MPD1  HN1216054   1.388  -0.277  12.179  0.0000  0.0000  0.0000
 2071MPD1  HN1316055   1.381  -0.144  12.280  0.0000  0.0000  0.0000
 2071MPD1  NB1416056   1.564  -0.321  12.718  0.0000  0.0000  0.0000
 2071MPD1  NH1516057   1.428  -0.231  12.260  0.0000  0.0000  0.0000
 2072MPD2  CA1616058   2.194  -2.102  12.843  0.0000  0.0000  0.0000
 2072MPD2  CA1716059   2.333  -2.082  12.832  0.0000  0.0000  0.0000
 2072MPD2  CA1816060   2.416  -2.054  12.942  0.0000  0.0000  0.0000
 2072MPD2  CA1916061   2.353  -2.045  13.065  0.0000  0.0000  0.0000
 2072MPD2  CA2016062   2.220  -2.088  13.080  0.0000  0.0000  0.0000
 2072MPD2  CA2116063   2.139  -2.117  12.972  0.0000  0.0000  0.0000
 2072MPD2  HA2216064   2.375  -2.066  12.734  0.0000  0.0000  0.0000
 2072MPD2  HA2316065   2.405  -2.008  13.152  0.0000  0.0000  0.0000
 2072MPD2  HA2416066   2.169  -2.074  13.174  0.0000  0.0000  0.0000
 2072MPD2  HA2516067   2.032  -2.131  12.982  0.0000  0.0000  0.0000
 2072MPD2  HN2616068   2.153  -2.168  12.650  0.0000  0.0000  0.0000
 2072MPD2  HN2716069   2.607  -2.051  12.885  0.0000  0.0000  0.0000
 2072MPD2  NB2816070   2.112  -2.117  12.727  0.0000  0.0000  0.0000
 2072MPD2  NB2916071   2.541  -1.988  12.928  0.0000  0.0000  0.0000
 2073MPD2  CA1616072   2.215   0.172  13.867  0.0000  0.0000  0.0000
 2073MPD2  CA1716073   2.286   0.226  13.760  0.0000  0.0000  0.0000
 2073MPD2  CA1816074   2.231   0.335  13.683  0.0000  0.0000  0.0000
 2073MPD2  CA1916075   2.108   0.386  13.718  0.0000  0.0000  0.0000
 2073MPD2  CA2016076   2.049   0.335  13.833  0.0000  0.0000  0.0000
 2073MPD2  CA2116077   2.099   0.228  13.906  0.0000  0.0000  0.0000
 2073MPD2  HA2216078   2.377   0.184  13.718  0.0000  0.0000  0.0000
 2073MPD2  HA2316079   2.056   0.465  13.665  0.0000  0.0000  0.0000
 2073MPD2  HA2416080   1.962   0.392  13.865  0.0000  0.0000  0.0000
 2073MPD2  HA2516081   2.045   0.190  13.993  0.0000  0.0000  0.0000
 2073MPD2  HN2616082   2.262   0.073  14.032  0.0000  0.0000  0.0000
 2073MPD2  HN2716083   2.285   0.333  13.478  0.0000  0.0000  0.0000
 2073MPD2  NB2816084   2.268   0.057  13.932  0.0000  0.0000  0.0000
 2073MPD2  NB2916085   2.303   0.379  13.567  0.0000  0.0000  0.0000
 2074MPD2  CA1616086   4.702  -0.704  13.142  0.0000  0.0000  0.0000
 2074MPD2  CA1716087   4.643  -0.827  13.133  0.0000  0.0000  0.0000
 2074MPD2  CA1816088   4.688  -0.935  13.206  0.0000  0.0000  0.0000
 2074MPD2  CA1916089   4.802  -0.914  13.287  0.0000  0.0000  0.0000
 2074MPD2  CA2016090   4.864  -0.790  13.298  0.0000  0.0000  0.0000
 2074MPD2  CA2116091   4.805  -0.684  13.235  0.0000  0.0000  0.0000
 2074MPD2  HA2216092   4.555  -0.839  13.070  0.0000  0.0000  0.0000
 2074MPD2  HA2316093   4.848  -0.992  13.346  0.0000  0.0000  0.0000
 2074MPD2  HA2416094   4.946  -0.761  13.362  0.0000  0.0000  0.0000
 2074MPD2  HA2516095   4.854  -0.588  13.244  0.0000  0.0000  0.0000
 2074MPD2  HN2616096   4.625  -0.518  13.129  0.0000  0.0000  0.0000
 2074MPD2  HN2716097   4.598  -1.084  13.091  0.0000  0.0000  0.0000
 2074MPD2  NB2816098   4.655  -0.597  13.073  0.0000  0.0000  0.0000
 2074MPD2  NB2916099   4.627  -1.067  13.186  0.0000  0.0000  0.0000
 2075MPD2  CA1616100   1.671  -0.580  13.061  0.0000  0.0000  0.0000
 2075MPD2  CA1716101   1.676  -0.702  12.991  0.0000  0.0000  0.0000
 2075MPD2  CA1816102   1.569  -0.752  12.917  0.0000  0.0000  0.0000
 2075MPD2  CA1916103   1.448  -0.678  12.913  0.0000  0.0000  0.0000
 2075MPD2  CA2016104   1.440  -0.562  12.996  0.0000  0.0000  0.0000
 2075MPD2  CA2116105   1.548  -0.519  13.072  0.0000  0.0000  0.0000
 2075MPD2  HA2216106   1.768  -0.759  12.992  0.0000  0.0000  0.0000
 2075MPD2  HA2316107   1.357  -0.708  12.861  0.0000  0.0000  0.0000
 2075MPD2  HA2416108   1.345  -0.510  12.997  0.0000  0.0000  0.0000
 2075MPD2  HA2516109   1.541  -0.437  13.142  0.0000  0.0000  0.0000
 2075MPD2  HN2616110   1.844  -0.602  13.168  0.0000  0.0000  0.0000
 2075MPD2  HN2716111   1.520  -0.869  12.757  0.0000  0.0000  0.0000
 2075MPD2  NB2816112   1.782  -0.530  13.134  0.0000  0.0000  0.0000
 2075MPD2  NB2916113   1.583  -0.868  12.837  0.0000  0.0000  0.0000
 2076MPD2  CA1616114   2.285  -0.677  13.779  0.0000  0.0000  0.0000
 2076MPD2  CA1716115   2.384  -0.778  13.797  0.0000  0.0000  0.0000
 2076MPD2  CA1816116   2.375  -0.904  13.727  0.0000  0.0000  0.0000
 2076MPD2  CA1916117   2.269  -0.922  13.635  0.0000  0.0000  0.0000
 2076MPD2  CA2016118   2.164  -0.830  13.633  0.0000  0.0000  0.0000
 2076MPD2  CA2116119   2.169  -0.705  13.704  0.0000  0.0000  0.0000
 2076MPD2  HA2216120   2.456  -0.764  13.876  0.0000  0.0000  0.0000
 2076MPD2  HA2316121   2.258  -1.012  13.575  0.0000  0.0000  0.0000
 2076MPD2  HA2416122   2.069  -0.846  13.582  0.0000  0.0000  0.0000
 2076MPD2  HA2516123   2.092  -0.628  13.697  0.0000  0.0000  0.0000
 2076MPD2  HN2616124   2.242  -0.482  13.825  0.0000  0.0000  0.0000
 2076MPD2  HN2716125   2.569  -0.959  13.770  0.0000  0.0000  0.0000
 2076MPD2  NB2816126   2.284  -0.565  13.865  0.0000  0.0000  0.0000
 2076MPD2  NB2916127   2.481  -0.993  13.731  0.0000  0.0000  0.0000
 2077MPD2  CA1616128   2.104   0.481  11.376  0.0000  0.0000  0.0000
 2077MPD2  CA1716129   2.197   0.588  11.358  0.0000  0.0000  0.0000
 2077MPD2  CA1816130   2.169   0.709  11.420  0.0000  0.0000  0.0000
 2077MPD2  CA1916131   2.047   0.738  11.488  0.0000  0.0000  0.0000
 2077MPD2  CA2016132   1.952   0.635  11.488  0.0000  0.0000  0.0000
 2077MPD2  CA2116133   1.979   0.509  11.435  0.0000  0.0000  0.0000
 2077MPD2  HA2216134   2.289   0.571  11.302  0.0000  0.0000  0.0000
 2077MPD2  HA2316135   2.023   0.829  11.543  0.0000  0.0000  0.0000
 2077MPD2  HA2416136   1.859   0.656  11.540  0.0000  0.0000  0.0000
 2077MPD2  HA2516137   1.900   0.436  11.448  0.0000  0.0000  0.0000
 2077MPD2  HN2616138   2.080   0.331  11.244  0.0000  0.0000  0.0000
 2077MPD2  HN2716139   2.372   0.759  11.421  0.0000  0.0000  0.0000
 2077MPD2  NB2816140   2.136   0.353  11.326  0.0000  0.0000  0.0000
 2077MPD2  NB2916141   2.280   0.802  11.429  0.0000  0.0000  0.0000
 2078MPD1   CA116142   3.294  -0.242  13.601  0.0000  0.0000  0.0000
 2078MPD1   CA216143   3.360  -0.122  13.648  0.0000  0.0000  0.0000
 2078MPD1   CA316144   3.478  -0.065  13.595  0.0000  0.0000  0.0000
 2078MPD1   CA416145   3.530  -0.139  13.490  0.0000  0.0000  0.0000
 2078MPD1   CA516146   3.468  -0.255  13.439  0.0000  0.0000  0.0000
 2078MPD1   CA616147   3.355  -0.311  13.497  0.0000  0.0000  0.0000
 2078MPD1  HA1016148   3.312  -0.403  13.458  0.0000  0.0000  0.0000
 2078MPD1   HA716149   3.316  -0.076  13.736  0.0000  0.0000  0.0000
 2078MPD1   HA816150   3.607  -0.106  13.422  0.0000  0.0000  0.0000
 2078MPD1   HA916151   3.510  -0.304  13.352  0.0000  0.0000  0.0000
 2078MPD1  HN1116152   3.204  -0.306  13.773  0.0000  0.0000  0.0000
 2078MPD1  HN1216153   3.506   0.113  13.709  0.0000  0.0000  0.0000
 2078MPD1  HN1316154   3.611   0.101  13.577  0.0000  0.0000  0.0000
 2078MPD1  NB1416155   3.185  -0.295  13.675  0.0000  0.0000  0.0000
 2078MPD1  NH1516156   3.540   0.055  13.633  0.0000  0.0000  0.0000
 2079MPD2  CA1616157   1.758  -1.296  13.686  0.0000  0.0000  0.0000
 2079MPD2  CA1716158   1.825  -1.262  13.570  0.0000  0.0000  0.0000
 2079MPD2  CA1816159   1.823  -1.349  13.460  0.0000  0.0000  0.0000
 2079MPD2  CA1916160   1.748  -1.466  13.471  0.0000  0.0000  0.0000
 2079MPD2  CA2016161   1.683  -1.498  13.591  0.0000  0.0000  0.0000
 2079MPD2  CA2116162   1.681  -1.417  13.700  0.0000  0.0000  0.0000
 2079MPD2  HA2216163   1.868  -1.163  13.560  0.0000  0.0000  0.0000
 2079MPD2  HA2316164   1.751  -1.536  13.388  0.0000  0.0000  0.0000
 2079MPD2  HA2416165   1.641  -1.598  13.604  0.0000  0.0000  0.0000
 2079MPD2  HA2516166   1.643  -1.443  13.799  0.0000  0.0000  0.0000
 2079MPD2  HN2616167   1.844  -1.181  13.830  0.0000  0.0000  0.0000
 2079MPD2  HN2716168   1.848  -1.264  13.271  0.0000  0.0000  0.0000
 2079MPD2  NB2816169   1.757  -1.189  13.779  0.0000  0.0000  0.0000
 2079MPD2  NB2916170   1.899  -1.314  13.342  0.0000  0.0000  0.0000
 2080MPD2  CA1616171   2.240  -0.334  11.988  0.0000  0.0000  0.0000
 2080MPD2  CA1716172   2.274  -0.234  11.904  0.0000  0.0000  0.0000
 2080MPD2  CA1816173   2.215  -0.106  11.912  0.0000  0.0000  0.0000
 2080MPD2  CA1916174   2.114  -0.091  12.009  0.0000  0.0000  0.0000
 2080MPD2  CA2016175   2.089  -0.191  12.104  0.0000  0.0000  0.0000
 2080MPD2  CA2116176   2.151  -0.314  12.094  0.0000  0.0000  0.0000
 2080MPD2  HA2216177   2.356  -0.258  11.837  0.0000  0.0000  0.0000
 2080MPD2  HA2316178   2.062   0.003  12.023  0.0000  0.0000  0.0000
 2080MPD2  HA2416179   2.027  -0.167  12.190  0.0000  0.0000  0.0000
 2080MPD2  HA2516180   2.117  -0.398  12.154  0.0000  0.0000  0.0000
 2080MPD2  HN2616181   2.412  -0.442  11.972  0.0000  0.0000  0.0000
 2080MPD2  HN2716182   2.298  -0.029  11.741  0.0000  0.0000  0.0000
 2080MPD2  NB2816183   2.312  -0.453  11.978  0.0000  0.0000  0.0000
 2080MPD2  NB2916184   2.263  -0.003  11.832  0.0000  0.0000  0.0000
 2081MPD2  CA1616185   4.041  -0.487  12.683  0.0000  0.0000  0.0000
 2081MPD2  CA1716186   4.033  -0.611  12.626  0.0000  0.0000  0.0000
 2081MPD2  CA1816187   3.924  -0.655  12.557  0.0000  0.0000  0.0000
 2081MPD2  CA1916188   3.814  -0.567  12.545  0.0000  0.0000  0.0000
 2081MPD2  CA2016189   3.814  -0.447  12.613  0.0000  0.0000  0.0000
 2081MPD2  CA2116190   3.927  -0.401  12.678  0.0000  0.0000  0.0000
 2081MPD2  HA2216191   4.116  -0.681  12.622  0.0000  0.0000  0.0000
 2081MPD2  HA2316192   3.723  -0.596  12.494  0.0000  0.0000  0.0000
 2081MPD2  HA2416193   3.729  -0.380  12.605  0.0000  0.0000  0.0000
 2081MPD2  HA2516194   3.921  -0.309  12.734  0.0000  0.0000  0.0000
 2081MPD2  HN2616195   4.235  -0.530  12.741  0.0000  0.0000  0.0000
 2081MPD2  HN2716196   3.842  -0.757  12.403  0.0000  0.0000  0.0000
 2081MPD2  NB2816197   4.165  -0.458  12.753  0.0000  0.0000  0.0000
 2081MPD2  NB2916198   3.916  -0.768  12.472  0.0000  0.0000  0.0000
 2082MPD2  CA1616199   2.023   1.670  12.587  0.0000  0.0000  0.0000
 2082MPD2  CA1716200   1.900   1.735  12.582  0.0000  0.0000  0.0000
 2082MPD2  CA1816201   1.824   1.737  12.462  0.0000  0.0000  0.0000
 2082MPD2  CA1916202   1.881   1.683  12.350  0.0000  0.0000  0.0000
 2082MPD2  CA2016203   2.003   1.615  12.354  0.0000  0.0000  0.0000
 2082MPD2  CA2116204   2.077   1.611  12.473  0.0000  0.0000  0.0000
 2082MPD2  HA2216205   1.858   1.786  12.668  0.0000  0.0000  0.0000
 2082MPD2  HA2316206   1.830   1.683  12.254  0.0000  0.0000  0.0000
 2082MPD2  HA2416207   2.040   1.571  12.262  0.0000  0.0000  0.0000
 2082MPD2  HA2516208   2.170   1.555  12.472  0.0000  0.0000  0.0000
 2082MPD2  HN2616209   2.201   1.680  12.675  0.0000  0.0000  0.0000
 2082MPD2  HN2716210   1.679   1.872  12.401  0.0000  0.0000  0.0000
 2082MPD2  NB2816211   2.103   1.668  12.701  0.0000  0.0000  0.0000
 2082MPD2  NB2916212   1.688   1.789  12.458  0.0000  0.0000  0.0000
 2083MPD2  CA1616213   3.988   0.020  11.418  0.0000  0.0000  0.0000
 2083MPD2  CA1716214   3.954  -0.103  11.478  0.0000  0.0000  0.0000
 2083MPD2  CA1816215   3.823  -0.117  11.532  0.0000  0.0000  0.0000
 2083MPD2  CA1916216   3.724  -0.018  11.507  0.0000  0.0000  0.0000
 2083MPD2  CA2016217   3.765   0.103  11.436  0.0000  0.0000  0.0000
 2083MPD2  CA2116218   3.897   0.117  11.386  0.0000  0.0000  0.0000
 2083MPD2  HA2216219   4.036  -0.166  11.511  0.0000  0.0000  0.0000
 2083MPD2  HA2316220   3.625  -0.031  11.549  0.0000  0.0000  0.0000
 2083MPD2  HA2416221   3.695   0.185  11.430  0.0000  0.0000  0.0000
 2083MPD2  HA2516222   3.938   0.205  11.337  0.0000  0.0000  0.0000
 2083MPD2  HN2616223   4.153   0.060  11.301  0.0000  0.0000  0.0000
 2083MPD2  HN2716224   3.810  -0.304  11.621  0.0000  0.0000  0.0000
 2083MPD2  NB2816225   4.123   0.063  11.398  0.0000  0.0000  0.0000
 2083MPD2  NB2916226   3.807  -0.205  11.643  0.0000  0.0000  0.0000
 2084MPD2  CA1616227   2.723  -0.526  14.245  0.0000  0.0000  0.0000
 2084MPD2  CA1716228   2.635  -0.420  14.282  0.0000  0.0000  0.0000
 2084MPD2  CA1816229   2.578  -0.402  14.411  0.0000  0.0000  0.0000
 2084MPD2  CA1916230   2.599  -0.506  14.500  0.0000  0.0000  0.0000
 2084MPD2  CA2016231   2.693  -0.606  14.466  0.0000  0.0000  0.0000
 2084MPD2  CA2116232   2.753  -0.621  14.341  0.0000  0.0000  0.0000
 2084MPD2  HA2216233   2.610  -0.344  14.208  0.0000  0.0000  0.0000
 2084MPD2  HA2316234   2.551  -0.509  14.597  0.0000  0.0000  0.0000
 2084MPD2  HA2416235   2.703  -0.689  14.535  0.0000  0.0000  0.0000
 2084MPD2  HA2516236   2.823  -0.702  14.320  0.0000  0.0000  0.0000
 2084MPD2  HN2616237   2.759  -0.625  14.066  0.0000  0.0000  0.0000
 2084MPD2  HN2716238   2.491  -0.268  14.540  0.0000  0.0000  0.0000
 2084MPD2  NB2816239   2.774  -0.537  14.114  0.0000  0.0000  0.0000
 2084MPD2  NB2916240   2.495  -0.290  14.441  0.0000  0.0000  0.0000
 2085MPD2  CA1616241   3.290  -1.950  12.813  0.0000  0.0000  0.0000
 2085MPD2  CA1716242   3.373  -1.884  12.723  0.0000  0.0000  0.0000
 2085MPD2  CA1816243   3.486  -1.941  12.673  0.0000  0.0000  0.0000
 2085MPD2  CA1916244   3.525  -2.071  12.710  0.0000  0.0000  0.0000
 2085MPD2  CA2016245   3.439  -2.137  12.800  0.0000  0.0000  0.0000
 2085MPD2  CA2116246   3.324  -2.078  12.849  0.0000  0.0000  0.0000
 2085MPD2  HA2216247   3.339  -1.783  12.697  0.0000  0.0000  0.0000
 2085MPD2  HA2316248   3.612  -2.115  12.662  0.0000  0.0000  0.0000
 2085MPD2  HA2416249   3.472  -2.237  12.824  0.0000  0.0000  0.0000
 2085MPD2  HA2516250   3.264  -2.123  12.928  0.0000  0.0000  0.0000
 2085MPD2  HN2616251   3.179  -1.780  12.856  0.0000  0.0000  0.0000
 2085MPD2  HN2716252   3.576  -1.901  12.489  0.0000  0.0000  0.0000
 2085MPD2  NB2816253   3.178  -1.881  12.866  0.0000  0.0000  0.0000
 2085MPD2  NB2916254   3.570  -1.863  12.583  0.0000  0.0000  0.0000
 2086MPD2  CA1616255   2.583  -0.681  11.284  0.0000  0.0000  0.0000
 2086MPD2  CA1716256   2.458  -0.638  11.224  0.0000  0.0000  0.0000
 2086MPD2  CA1816257   2.455  -0.535  11.135  0.0000  0.0000  0.0000
 2086MPD2  CA1916258   2.567  -0.450  11.116  0.0000  0.0000  0.0000
 2086MPD2  CA2016259   2.682  -0.480  11.186  0.0000  0.0000  0.0000
 2086MPD2  CA2116260   2.696  -0.595  11.270  0.0000  0.0000  0.0000
 2086MPD2  HA2216261   2.378  -0.711  11.224  0.0000  0.0000  0.0000
 2086MPD2  HA2316262   2.556  -0.374  11.039  0.0000  0.0000  0.0000
 2086MPD2  HA2416263   2.764  -0.412  11.169  0.0000  0.0000  0.0000
 2086MPD2  HA2516264   2.791  -0.622  11.313  0.0000  0.0000  0.0000
 2086MPD2  HN2616265   2.538  -0.893  11.288  0.0000  0.0000  0.0000
 2086MPD2  HN2716266   2.346  -0.496  10.970  0.0000  0.0000  0.0000
 2086MPD2  NB2816267   2.599  -0.819  11.323  0.0000  0.0000  0.0000
 2086MPD2  NB2916268   2.335  -0.503  11.070  0.0000  0.0000  0.0000
 2087MPD2  CA1616269   4.229  -0.364  11.845  0.0000  0.0000  0.0000
 2087MPD2  CA1716270   4.173  -0.453  11.939  0.0000  0.0000  0.0000
 2087MPD2  CA1816271   4.218  -0.585  11.949  0.0000  0.0000  0.0000
 2087MPD2  CA1916272   4.322  -0.625  11.870  0.0000  0.0000  0.0000
 2087MPD2  CA2016273   4.379  -0.540  11.781  0.0000  0.0000  0.0000
 2087MPD2  CA2116274   4.327  -0.412  11.761  0.0000  0.0000  0.0000
 2087MPD2  HA2216275   4.081  -0.424  11.990  0.0000  0.0000  0.0000
 2087MPD2  HA2316276   4.358  -0.727  11.879  0.0000  0.0000  0.0000
 2087MPD2  HA2416277   4.453  -0.584  11.715  0.0000  0.0000  0.0000
 2087MPD2  HA2516278   4.373  -0.344  11.690  0.0000  0.0000  0.0000
 2087MPD2  HN2616279   4.181  -0.220  11.714  0.0000  0.0000  0.0000
 2087MPD2  HN2716280   4.130  -0.658  12.122  0.0000  0.0000  0.0000
 2087MPD2  NB2816281   4.169  -0.242  11.812  0.0000  0.0000  0.0000
 2087MPD2  NB2916282   4.157  -0.682  12.027  0.0000  0.0000  0.0000
 2088MPD2  CA1616283   2.640   0.691  11.809  0.0000  0.0000  0.0000
 2088MPD2  CA1716284   2.771   0.680  11.846  0.0000  0.0000  0.0000
 2088MPD2  CA1816285   2.853   0.790  11.857  0.0000  0.0000  0.0000
 2088MPD2  CA1916286   2.806   0.911  11.819  0.0000  0.0000  0.0000
 2088MPD2  CA2016287   2.672   0.931  11.777  0.0000  0.0000  0.0000
 2088MPD2  CA2116288   2.593   0.820  11.766  0.0000  0.0000  0.0000
 2088MPD2  HA2216289   2.810   0.583  11.876  0.0000  0.0000  0.0000
 2088MPD2  HA2316290   2.869   0.998  11.837  0.0000  0.0000  0.0000
 2088MPD2  HA2416291   2.632   1.030  11.759  0.0000  0.0000  0.0000
 2088MPD2  HA2516292   2.488   0.826  11.739  0.0000  0.0000  0.0000
 2088MPD2  HN2616293   2.557   0.513  11.863  0.0000  0.0000  0.0000
 2088MPD2  HN2716294   3.045   0.715  11.872  0.0000  0.0000  0.0000
 2088MPD2  NB2816295   2.553   0.580  11.788  0.0000  0.0000  0.0000
 2088MPD2  NB2916296   2.983   0.786  11.909  0.0000  0.0000  0.0000
 2089MPD2  CA1616297   3.752   0.732  11.909  0.0000  0.0000  0.0000
 2089MPD2  CA1716298   3.821   0.614  11.913  0.0000  0.0000  0.0000
 2089MPD2  CA1816299   3.938   0.599  11.842  0.0000  0.0000  0.0000
 2089MPD2  CA1916300   3.978   0.703  11.757  0.0000  0.0000  0.0000
 2089MPD2  CA2016301   3.897   0.819  11.752  0.0000  0.0000  0.0000
 2089MPD2  CA2116302   3.797   0.837  11.837  0.0000  0.0000  0.0000
 2089MPD2  HA2216303   3.784   0.539  11.982  0.0000  0.0000  0.0000
 2089MPD2  HA2316304   4.056   0.698  11.682  0.0000  0.0000  0.0000
 2089MPD2  HA2416305   3.915   0.907  11.691  0.0000  0.0000  0.0000
 2089MPD2  HA2516306   3.752   0.936  11.836  0.0000  0.0000  0.0000
 2089MPD2  HN2616307   3.647   0.757  12.079  0.0000  0.0000  0.0000
 2089MPD2  HN2716308   4.094   0.472  11.766  0.0000  0.0000  0.0000
 2089MPD2  NB2816309   3.632   0.744  11.980  0.0000  0.0000  0.0000
 2089MPD2  NB2916310   4.007   0.473  11.818  0.0000  0.0000  0.0000
 2090MPD2  CA1616311   2.745  -0.273  11.869  0.0000  0.0000  0.0000
 2090MPD2  CA1716312   2.671  -0.310  11.984  0.0000  0.0000  0.0000
 2090MPD2  CA1816313   2.620  -0.221  12.079  0.0000  0.0000  0.0000
 2090MPD2  CA1916314   2.654  -0.087  12.064  0.0000  0.0000  0.0000
 2090MPD2  CA2016315   2.731  -0.049  11.950  0.0000  0.0000  0.0000
 2090MPD2  CA2116316   2.777  -0.139  11.853  0.0000  0.0000  0.0000
 2090MPD2  HA2216317   2.652  -0.416  11.997  0.0000  0.0000  0.0000
 2090MPD2  HA2316318   2.611  -0.012  12.129  0.0000  0.0000  0.0000
 2090MPD2  HA2416319   2.756   0.056  11.939  0.0000  0.0000  0.0000
 2090MPD2  HA2516320   2.824  -0.101  11.763  0.0000  0.0000  0.0000
 2090MPD2  HN2616321   2.884  -0.384  11.771  0.0000  0.0000  0.0000
 2090MPD2  HN2716322   2.456  -0.180  12.188  0.0000  0.0000  0.0000
 2090MPD2  NB2816323   2.784  -0.371  11.773  0.0000  0.0000  0.0000
 2090MPD2  NB2916324   2.521  -0.256  12.169  0.0000  0.0000  0.0000
 2091MPD2  CA1616325   1.875  -0.968  12.403  0.0000  0.0000  0.0000
 2091MPD2  CA1716326   1.997  -0.894  12.414  0.0000  0.0000  0.0000
 2091MPD2  CA1816327   1.991  -0.750  12.435  0.0000  0.0000  0.0000
 2091MPD2  CA1916328   1.871  -0.690  12.455  0.0000  0.0000  0.0000
 2091MPD2  CA2016329   1.757  -0.761  12.440  0.0000  0.0000  0.0000
 2091MPD2  CA2116330   1.755  -0.897  12.407  0.0000  0.0000  0.0000
 2091MPD2  HA2216331   2.090  -0.949  12.406  0.0000  0.0000  0.0000
 2091MPD2  HA2316332   1.864  -0.583  12.472  0.0000  0.0000  0.0000
 2091MPD2  HA2416333   1.665  -0.703  12.444  0.0000  0.0000  0.0000
 2091MPD2  HA2516334   1.661  -0.941  12.377  0.0000  0.0000  0.0000
 2091MPD2  HN2616335   1.922  -1.118  12.273  0.0000  0.0000  0.0000
 2091MPD2  HN2716336   2.171  -0.668  12.351  0.0000  0.0000  0.0000
 2091MPD2  NB2816337   1.872  -1.103  12.360  0.0000  0.0000  0.0000
 2091MPD2  NB2916338   2.110  -0.669  12.432  0.0000  0.0000  0.0000
 2092MPD2  CA1616339   1.217   0.115  13.410  0.0000  0.0000  0.0000
 2092MPD2  CA1716340   1.209  -0.012  13.338  0.0000  0.0000  0.0000
 2092MPD2  CA1816341   1.203  -0.136  13.402  0.0000  0.0000  0.0000
 2092MPD2  CA1916342   1.198  -0.133  13.544  0.0000  0.0000  0.0000
 2092MPD2  CA2016343   1.196  -0.011  13.615  0.0000  0.0000  0.0000
 2092MPD2  CA2116344   1.216   0.115  13.546  0.0000  0.0000  0.0000
 2092MPD2  HA2216345   1.203  -0.005  13.230  0.0000  0.0000  0.0000
 2092MPD2  HA2316346   1.205  -0.223  13.604  0.0000  0.0000  0.0000
 2092MPD2  HA2416347   1.196  -0.013  13.723  0.0000  0.0000  0.0000
 2092MPD2  HA2516348   1.206   0.207  13.603  0.0000  0.0000  0.0000
 2092MPD2  HN2616349   1.305   0.238  13.271  0.0000  0.0000  0.0000
 2092MPD2  HN2716350   1.143  -0.243  13.237  0.0000  0.0000  0.0000
 2092MPD2  NB2816351   1.228   0.233  13.336  0.0000  0.0000  0.0000
 2092MPD2  NB2916352   1.197  -0.251  13.322  0.0000  0.0000  0.0000
 2093MPD2  CA1616353   2.646  -1.054  13.338  0.0000  0.0000  0.0000
 2093MPD2  CA1716354   2.666  -0.946  13.430  0.0000  0.0000  0.0000
 2093MPD2  CA1816355   2.795  -0.896  13.451  0.0000  0.0000  0.0000
 2093MPD2  CA1916356   2.906  -0.975  13.412  0.0000  0.0000  0.0000
 2093MPD2  CA2016357   2.887  -1.083  13.329  0.0000  0.0000  0.0000
 2093MPD2  CA2116358   2.758  -1.123  13.293  0.0000  0.0000  0.0000
 2093MPD2  HA2216359   2.579  -0.895  13.471  0.0000  0.0000  0.0000
 2093MPD2  HA2316360   3.007  -0.938  13.426  0.0000  0.0000  0.0000
 2093MPD2  HA2416361   2.976  -1.138  13.302  0.0000  0.0000  0.0000
 2093MPD2  HA2516362   2.759  -1.208  13.226  0.0000  0.0000  0.0000
 2093MPD2  HN2616363   2.453  -1.105  13.379  0.0000  0.0000  0.0000
 2093MPD2  HN2716364   2.922  -0.747  13.507  0.0000  0.0000  0.0000
 2093MPD2  NB2816365   2.518  -1.100  13.301  0.0000  0.0000  0.0000
 2093MPD2  NB2916366   2.828  -0.782  13.525  0.0000  0.0000  0.0000
 2094MPD2  CA1616367   3.379   1.121  12.786  0.0000  0.0000  0.0000
 2094MPD2  CA1716368   3.353   1.089  12.654  0.0000  0.0000  0.0000
 2094MPD2  CA1816369   3.257   0.992  12.617  0.0000  0.0000  0.0000
 2094MPD2  CA1916370   3.175   0.936  12.712  0.0000  0.0000  0.0000
 2094MPD2  CA2016371   3.193   0.980  12.850  0.0000  0.0000  0.0000
 2094MPD2  CA2116372   3.299   1.063  12.887  0.0000  0.0000  0.0000
 2094MPD2  HA2216373   3.412   1.132  12.574  0.0000  0.0000  0.0000
 2094MPD2  HA2316374   3.105   0.856  12.689  0.0000  0.0000  0.0000
 2094MPD2  HA2416375   3.138   0.939  12.934  0.0000  0.0000  0.0000
 2094MPD2  HA2516376   3.322   1.085  12.991  0.0000  0.0000  0.0000
 2094MPD2  HN2616377   3.537   1.161  12.912  0.0000  0.0000  0.0000
 2094MPD2  HN2716378   3.154   0.932  12.442  0.0000  0.0000  0.0000
 2094MPD2  NB2816379   3.491   1.195  12.829  0.0000  0.0000  0.0000
 2094MPD2  NB2916380   3.246   0.953  12.477  0.0000  0.0000  0.0000
 2095MPD2  CA1616381   3.797  -1.956  13.136  0.0000  0.0000  0.0000
 2095MPD2  CA1716382   3.665  -1.948  13.194  0.0000  0.0000  0.0000
 2095MPD2  CA1816383   3.572  -2.050  13.167  0.0000  0.0000  0.0000
 2095MPD2  CA1916384   3.616  -2.163  13.097  0.0000  0.0000  0.0000
 2095MPD2  CA2016385   3.742  -2.171  13.047  0.0000  0.0000  0.0000
 2095MPD2  CA2116386   3.839  -2.066  13.063  0.0000  0.0000  0.0000
 2095MPD2  HA2216387   3.645  -1.857  13.250  0.0000  0.0000  0.0000
 2095MPD2  HA2316388   3.548  -2.243  13.073  0.0000  0.0000  0.0000
 2095MPD2  HA2416389   3.776  -2.254  12.986  0.0000  0.0000  0.0000
 2095MPD2  HA2516390   3.942  -2.081  13.032  0.0000  0.0000  0.0000
 2095MPD2  HN2616391   3.956  -1.846  13.217  0.0000  0.0000  0.0000
 2095MPD2  HN2716392   3.412  -2.128  13.264  0.0000  0.0000  0.0000
 2095MPD2  NB2816393   3.883  -1.841  13.147  0.0000  0.0000  0.0000
 2095MPD2  NB2916394   3.445  -2.042  13.222  0.0000  0.0000  0.0000
 2096MPD2  CA1616395   3.296  -0.686  13.647  0.0000  0.0000  0.0000
 2096MPD2  CA1716396   3.395  -0.598  13.668  0.0000  0.0000  0.0000
 2096MPD2  CA1816397   3.401  -0.526  13.787  0.0000  0.0000  0.0000
 2096MPD2  CA1916398   3.303  -0.546  13.880  0.0000  0.0000  0.0000
 2096MPD2  CA2016399   3.196  -0.635  13.857  0.0000  0.0000  0.0000
 2096MPD2  CA2116400   3.195  -0.710  13.744  0.0000  0.0000  0.0000
 2096MPD2  HA2216401   3.463  -0.574  13.587  0.0000  0.0000  0.0000
 2096MPD2  HA2316402   3.300  -0.491  13.974  0.0000  0.0000  0.0000
 2096MPD2  HA2416403   3.121  -0.656  13.933  0.0000  0.0000  0.0000
 2096MPD2  HA2516404   3.112  -0.780  13.738  0.0000  0.0000  0.0000
 2096MPD2  HN2616405   3.390  -0.825  13.526  0.0000  0.0000  0.0000
 2096MPD2  HN2716406   3.458  -0.343  13.863  0.0000  0.0000  0.0000
 2096MPD2  NB2816407   3.309  -0.764  13.531  0.0000  0.0000  0.0000
 2096MPD2  NB2916408   3.490  -0.417  13.803  0.0000  0.0000  0.0000
 2097MPD2  CA1616409   1.248   1.235  12.947  0.0000  0.0000  0.0000
 2097MPD2  CA1716410   1.283   1.113  13.001  0.0000  0.0000  0.0000
 2097MPD2  CA1816411   1.193   1.045  13.083  0.0000  0.0000  0.0000
 2097MPD2  CA1916412   1.076   1.103  13.117  0.0000  0.0000  0.0000
 2097MPD2  CA2016413   1.038   1.223  13.059  0.0000  0.0000  0.0000
 2097MPD2  CA2116414   1.124   1.296  12.980  0.0000  0.0000  0.0000
 2097MPD2  HA2216415   1.378   1.070  12.974  0.0000  0.0000  0.0000
 2097MPD2  HA2316416   1.007   1.046  13.179  0.0000  0.0000  0.0000
 2097MPD2  HA2416417   0.937   1.260  13.072  0.0000  0.0000  0.0000
 2097MPD2  HA2516418   1.090   1.392  12.944  0.0000  0.0000  0.0000
 2097MPD2  HN2616419   1.433   1.236  12.857  0.0000  0.0000  0.0000
 2097MPD2  HN2716420   1.333   0.899  13.144  0.0000  0.0000  0.0000
 2097MPD2  NB2816421   1.350   1.293  12.868  0.0000  0.0000  0.0000
 2097MPD2  NB2916422   1.234   0.919  13.137  0.0000  0.0000  0.0000
 2098MPD2  CA1616423   3.085  -1.209  12.953  0.0000  0.0000  0.0000
 2098MPD2  CA1716424   3.202  -1.278  12.912  0.0000  0.0000  0.0000
 2098MPD2  CA1816425   3.221  -1.417  12.934  0.0000  0.0000  0.0000
 2098MPD2  CA1916426   3.123  -1.481  13.000  0.0000  0.0000  0.0000
 2098MPD2  CA2016427   3.003  -1.418  13.033  0.0000  0.0000  0.0000
 2098MPD2  CA2116428   2.984  -1.283  13.012  0.0000  0.0000  0.0000
 2098MPD2  HA2216429   3.277  -1.227  12.853  0.0000  0.0000  0.0000
 2098MPD2  HA2316430   3.135  -1.586  13.025  0.0000  0.0000  0.0000
 2098MPD2  HA2416431   2.924  -1.464  13.091  0.0000  0.0000  0.0000
 2098MPD2  HA2516432   2.894  -1.246  13.060  0.0000  0.0000  0.0000
 2098MPD2  HN2616433   2.967  -1.067  12.861  0.0000  0.0000  0.0000
 2098MPD2  HN2716434   3.364  -1.499  12.801  0.0000  0.0000  0.0000
 2098MPD2  NB2816435   3.046  -1.070  12.925  0.0000  0.0000  0.0000
 2098MPD2  NB2916436   3.337  -1.487  12.898  0.0000  0.0000  0.0000
 2099MPD2  CA1616437   2.576   0.847  12.750  0.0000  0.0000  0.0000
 2099MPD2  CA1716438   2.612   0.795  12.621  0.0000  0.0000  0.0000
 2099MPD2  CA1816439   2.732   0.829  12.564  0.0000  0.0000  0.0000
 2099MPD2  CA1916440   2.822   0.919  12.635  0.0000  0.0000  0.0000
 2099MPD2  CA2016441   2.786   0.964  12.763  0.0000  0.0000  0.0000
 2099MPD2  CA2116442   2.662   0.931  12.815  0.0000  0.0000  0.0000
 2099MPD2  HA2216443   2.542   0.729  12.571  0.0000  0.0000  0.0000
 2099MPD2  HA2316444   2.921   0.938  12.595  0.0000  0.0000  0.0000
 2099MPD2  HA2416445   2.863   1.023  12.812  0.0000  0.0000  0.0000
 2099MPD2  HA2516446   2.641   0.965  12.916  0.0000  0.0000  0.0000
 2099MPD2  HN2616447   2.406   0.882  12.872  0.0000  0.0000  0.0000
 2099MPD2  HN2716448   2.674   0.798  12.371  0.0000  0.0000  0.0000
 2099MPD2  NB2816449   2.453   0.811  12.818  0.0000  0.0000  0.0000
 2099MPD2  NB2916450   2.758   0.788  12.428  0.0000  0.0000  0.0000
 2100MPD2  CA1616451   2.352   0.362  12.366  0.0000  0.0000  0.0000
 2100MPD2  CA1716452   2.340   0.224  12.358  0.0000  0.0000  0.0000
 2100MPD2  CA1816453   2.232   0.153  12.417  0.0000  0.0000  0.0000
 2100MPD2  CA1916454   2.124   0.224  12.473  0.0000  0.0000  0.0000
 2100MPD2  CA2016455   2.137   0.363  12.479  0.0000  0.0000  0.0000
 2100MPD2  CA2116456   2.254   0.433  12.431  0.0000  0.0000  0.0000
 2100MPD2  HA2216457   2.426   0.170  12.317  0.0000  0.0000  0.0000
 2100MPD2  HA2316458   2.039   0.173  12.518  0.0000  0.0000  0.0000
 2100MPD2  HA2416459   2.050   0.420  12.510  0.0000  0.0000  0.0000
 2100MPD2  HA2516460   2.262   0.541  12.434  0.0000  0.0000  0.0000
 2100MPD2  HN2616461   2.518   0.493  12.375  0.0000  0.0000  0.0000
 2100MPD2  HN2716462   2.288  -0.038  12.349  0.0000  0.0000  0.0000
 2100MPD2  NB2816463   2.466   0.435  12.311  0.0000  0.0000  0.0000
 2100MPD2  NB2916464   2.233   0.016  12.416  0.0000  0.0000  0.0000
 2101MPD2  CA1616465   4.059   0.620  12.647  0.0000  0.0000  0.0000
 2101MPD2  CA1716466   3.997   0.737  12.688  0.0000  0.0000  0.0000
 2101MPD2  CA1816467   4.034   0.863  12.636  0.0000  0.0000  0.0000
 2101MPD2  CA1916468   4.132   0.867  12.538  0.0000  0.0000  0.0000
 2101MPD2  CA2016469   4.196   0.746  12.505  0.0000  0.0000  0.0000
 2101MPD2  CA2116470   4.165   0.626  12.553  0.0000  0.0000  0.0000
 2101MPD2  HA2216471   3.916   0.738  12.760  0.0000  0.0000  0.0000
 2101MPD2  HA2316472   4.184   0.956  12.504  0.0000  0.0000  0.0000
 2101MPD2  HA2416473   4.284   0.757  12.442  0.0000  0.0000  0.0000
 2101MPD2  HA2516474   4.224   0.542  12.519  0.0000  0.0000  0.0000
 2101MPD2  HN2616475   3.921   0.486  12.743  0.0000  0.0000  0.0000
 2101MPD2  HN2716476   3.871   0.982  12.715  0.0000  0.0000  0.0000
 2101MPD2  NB2816477   4.020   0.504  12.725  0.0000  0.0000  0.0000
 2101MPD2  NB2916478   3.969   0.980  12.689  0.0000  0.0000  0.0000
 2102MPD2  CA1616479   1.791   0.428  13.164  0.0000  0.0000  0.0000
 2102MPD2  CA1716480   1.846   0.320  13.081  0.0000  0.0000  0.0000
 2102MPD2  CA1816481   1.983   0.293  13.084  0.0000  0.0000  0.0000
 2102MPD2  CA1916482   2.076   0.376  13.152  0.0000  0.0000  0.0000
 2102MPD2  CA2016483   2.022   0.480  13.232  0.0000  0.0000  0.0000
 2102MPD2  CA2116484   1.885   0.504  13.241  0.0000  0.0000  0.0000
 2102MPD2  HA2216485   1.778   0.251  13.031  0.0000  0.0000  0.0000
 2102MPD2  HA2316486   2.181   0.351  13.154  0.0000  0.0000  0.0000
 2102MPD2  HA2416487   2.088   0.554  13.276  0.0000  0.0000  0.0000
 2102MPD2  HA2516488   1.852   0.586  13.304  0.0000  0.0000  0.0000
 2102MPD2  HN2616489   1.599   0.379  13.232  0.0000  0.0000  0.0000
 2102MPD2  HN2716490   2.090   0.212  12.933  0.0000  0.0000  0.0000
 2102MPD2  NB2816491   1.651   0.450  13.181  0.0000  0.0000  0.0000
 2102MPD2  NB2916492   2.041   0.180  13.016  0.0000  0.0000  0.0000
 2103MPD2  CA1616493   2.135  -0.595  13.071  0.0000  0.0000  0.0000
 2103MPD2  CA1716494   2.119  -0.696  12.974  0.0000  0.0000  0.0000
 2103MPD2  CA1816495   2.088  -0.833  13.003  0.0000  0.0000  0.0000
 2103MPD2  CA1916496   2.045  -0.859  13.136  0.0000  0.0000  0.0000
 2103MPD2  CA2016497   2.065  -0.758  13.230  0.0000  0.0000  0.0000
 2103MPD2  CA2116498   2.107  -0.627  13.203  0.0000  0.0000  0.0000
 2103MPD2  HA2216499   2.134  -0.664  12.871  0.0000  0.0000  0.0000
 2103MPD2  HA2316500   2.010  -0.953  13.175  0.0000  0.0000  0.0000
 2103MPD2  HA2416501   2.030  -0.789  13.328  0.0000  0.0000  0.0000
 2103MPD2  HA2516502   2.114  -0.545  13.274  0.0000  0.0000  0.0000
 2103MPD2  HN2616503   2.090  -0.406  13.093  0.0000  0.0000  0.0000
 2103MPD2  HN2716504   2.010  -0.891  12.823  0.0000  0.0000  0.0000
 2103MPD2  NB2816505   2.159  -0.461  13.044  0.0000  0.0000  0.0000
 2103MPD2  NB2916506   2.065  -0.927  12.900  0.0000  0.0000  0.0000
 2104MPD2  CA1616507   4.238  -0.342  13.377  0.0000  0.0000  0.0000
 2104MPD2  CA1716508   4.192  -0.287  13.252  0.0000  0.0000  0.0000
 2104MPD2  CA1816509   4.225  -0.154  13.218  0.0000  0.0000  0.0000
 2104MPD2  CA1916510   4.320  -0.085  13.293  0.0000  0.0000  0.0000
 2104MPD2  CA2016511   4.359  -0.132  13.416  0.0000  0.0000  0.0000
 2104MPD2  CA2116512   4.315  -0.258  13.462  0.0000  0.0000  0.0000
 2104MPD2  HA2216513   4.123  -0.339  13.187  0.0000  0.0000  0.0000
 2104MPD2  HA2316514   4.342   0.018  13.266  0.0000  0.0000  0.0000
 2104MPD2  HA2416515   4.416  -0.062  13.475  0.0000  0.0000  0.0000
 2104MPD2  HA2516516   4.362  -0.293  13.553  0.0000  0.0000  0.0000
 2104MPD2  HN2616517   4.252  -0.551  13.384  0.0000  0.0000  0.0000
 2104MPD2  HN2716518   4.044  -0.100  13.115  0.0000  0.0000  0.0000
 2104MPD2  NB2816519   4.194  -0.474  13.417  0.0000  0.0000  0.0000
 2104MPD2  NB2916520   4.145  -0.091  13.116  0.0000  0.0000  0.0000
 2105MPD2  CA1616521   3.954  -1.135  12.983  0.0000  0.0000  0.0000
 2105MPD2  CA1716522   3.837  -1.085  13.040  0.0000  0.0000  0.0000
 2105MPD2  CA1816523   3.719  -1.169  13.046  0.0000  0.0000  0.0000
 2105MPD2  CA1916524   3.727  -1.300  13.015  0.0000  0.0000  0.0000
 2105MPD2  CA2016525   3.848  -1.351  12.978  0.0000  0.0000  0.0000
 2105MPD2  CA2116526   3.965  -1.275  12.966  0.0000  0.0000  0.0000
 2105MPD2  HA2216527   3.830  -0.978  13.058  0.0000  0.0000  0.0000
 2105MPD2  HA2316528   3.637  -1.360  13.024  0.0000  0.0000  0.0000
 2105MPD2  HA2416529   3.850  -1.454  12.944  0.0000  0.0000  0.0000
 2105MPD2  HA2516530   4.060  -1.319  12.934  0.0000  0.0000  0.0000
 2105MPD2  HN2616531   4.157  -1.077  12.979  0.0000  0.0000  0.0000
 2105MPD2  HN2716532   3.517  -1.166  13.027  0.0000  0.0000  0.0000
 2105MPD2  NB2816533   4.064  -1.051  12.947  0.0000  0.0000  0.0000
 2105MPD2  NB2916534   3.591  -1.118  13.076  0.0000  0.0000  0.0000
 2106MPD2  CA1616535   2.769  -0.112  12.420  0.0000  0.0000  0.0000
 2106MPD2  CA1716536   2.681  -0.137  12.521  0.0000  0.0000  0.0000
 2106MPD2  CA1816537   2.601  -0.040  12.580  0.0000  0.0000  0.0000
 2106MPD2  CA1916538   2.598   0.088  12.524  0.0000  0.0000  0.0000
 2106MPD2  CA2016539   2.686   0.121  12.425  0.0000  0.0000  0.0000
 2106MPD2  CA2116540   2.771   0.022  12.371  0.0000  0.0000  0.0000
 2106MPD2  HA2216541   2.681  -0.242  12.548  0.0000  0.0000  0.0000
 2106MPD2  HA2316542   2.527   0.166  12.550  0.0000  0.0000  0.0000
 2106MPD2  HA2416543   2.698   0.215  12.372  0.0000  0.0000  0.0000
 2106MPD2  HA2516544   2.845   0.056  12.299  0.0000  0.0000  0.0000
 2106MPD2  HN2616545   2.933  -0.166  12.314  0.0000  0.0000  0.0000
 2106MPD2  HN2716546   2.465  -0.167  12.674  0.0000  0.0000  0.0000
 2106MPD2  NB2816547   2.855  -0.207  12.365  0.0000  0.0000  0.0000
 2106MPD2  NB2916548   2.507  -0.075  12.683  0.0000  0.0000  0.0000
 2107MPD2  CA1616549   3.721  -0.133  13.013  0.0000  0.0000  0.0000
 2107MPD2  CA1716550   3.733  -0.261  12.950  0.0000  0.0000  0.0000
 2107MPD2  CA1816551   3.783  -0.370  13.023  0.0000  0.0000  0.0000
 2107MPD2  CA1916552   3.826  -0.351  13.158  0.0000  0.0000  0.0000
 2107MPD2  CA2016553   3.821  -0.229  13.217  0.0000  0.0000  0.0000
 2107MPD2  CA2116554   3.767  -0.125  13.147  0.0000  0.0000  0.0000
 2107MPD2  HA2216555   3.703  -0.270  12.846  0.0000  0.0000  0.0000
 2107MPD2  HA2316556   3.866  -0.435  13.214  0.0000  0.0000  0.0000
 2107MPD2  HA2416557   3.848  -0.221  13.322  0.0000  0.0000  0.0000
 2107MPD2  HA2516558   3.757  -0.031  13.200  0.0000  0.0000  0.0000
 2107MPD2  HN2616559   3.564  -0.030  12.926  0.0000  0.0000  0.0000
 2107MPD2  HN2716560   3.895  -0.544  12.989  0.0000  0.0000  0.0000
 2107MPD2  NB2816561   3.665  -0.023  12.935  0.0000  0.0000  0.0000
 2107MPD2  NB2916562   3.809  -0.498  12.963  0.0000  0.0000  0.0000
 2108MPD2  CA1616563   3.028   0.178  11.888  0.0000  0.0000  0.0000
 2108MPD2  CA1716564   3.038   0.062  11.957  0.0000  0.0000  0.0000
 2108MPD2  CA1816565   3.109  -0.047  11.911  0.0000  0.0000  0.0000
 2108MPD2  CA1916566   3.171  -0.032  11.785  0.0000  0.0000  0.0000
 2108MPD2  CA2016567   3.164   0.084  11.710  0.0000  0.0000  0.0000
 2108MPD2  CA2116568   3.089   0.193  11.759  0.0000  0.0000  0.0000
 2108MPD2  HA2216569   2.988   0.055  12.053  0.0000  0.0000  0.0000
 2108MPD2  HA2316570   3.224  -0.117  11.744  0.0000  0.0000  0.0000
 2108MPD2  HA2416571   3.217   0.090  11.615  0.0000  0.0000  0.0000
 2108MPD2  HA2516572   3.076   0.286  11.704  0.0000  0.0000  0.0000
 2108MPD2  HN2616573   2.891   0.337  11.883  0.0000  0.0000  0.0000
 2108MPD2  HN2716574   3.089  -0.163  12.086  0.0000  0.0000  0.0000
 2108MPD2  NB2816575   2.962   0.293  11.940  0.0000  0.0000  0.0000
 2108MPD2  NB2916576   3.112  -0.171  11.988  0.0000  0.0000  0.0000
 2109MPD2  CA1616577   3.245  -0.883  12.339  0.0000  0.0000  0.0000
 2109MPD2  CA1716578   3.335  -0.873  12.446  0.0000  0.0000  0.0000
 2109MPD2  CA1816579   3.411  -0.978  12.488  0.0000  0.0000  0.0000
 2109MPD2  CA1916580   3.411  -1.093  12.411  0.0000  0.0000  0.0000
 2109MPD2  CA2016581   3.339  -1.094  12.294  0.0000  0.0000  0.0000
 2109MPD2  CA2116582   3.247  -0.998  12.265  0.0000  0.0000  0.0000
 2109MPD2  HA2216583   3.329  -0.783  12.507  0.0000  0.0000  0.0000
 2109MPD2  HA2316584   3.477  -1.178  12.427  0.0000  0.0000  0.0000
 2109MPD2  HA2416585   3.342  -1.187  12.238  0.0000  0.0000  0.0000
 2109MPD2  HA2516586   3.175  -1.022  12.187  0.0000  0.0000  0.0000
 2109MPD2  HN2616587   3.127  -0.706  12.372  0.0000  0.0000  0.0000
 2109MPD2  HN2716588   3.470  -0.894  12.671  0.0000  0.0000  0.0000
 2109MPD2  NB2816589   3.169  -0.764  12.301  0.0000  0.0000  0.0000
 2109MPD2  NB2916590   3.506  -0.948  12.593  0.0000  0.0000  0.0000
 2110TMC3  CA3716591   3.715  -0.903  12.710  0.0000  0.0000  0.0000
 2110TMC3  CA3816592   3.678  -0.777  12.753  0.0000  0.0000  0.0000
 2110TMC3  CA3916593   3.759  -0.694  12.839  0.0000  0.0000  0.0000
 2110TMC3  CA4016594   3.883  -0.751  12.874  0.0000  0.0000  0.0000
 2110TMC3  CA4116595   3.925  -0.874  12.833  0.0000  0.0000  0.0000
 2110TMC3  CA4216596   3.847  -0.946  12.746  0.0000  0.0000  0.0000
 2110TMC3  CB4316597   3.641  -0.979  12.600  0.0000  0.0000  0.0000
 2110TMC3  CB4416598   3.720  -0.560  12.878  0.0000  0.0000  0.0000
 2110TMC3  CB4516599   4.058  -0.923  12.887  0.0000  0.0000  0.0000
 2110TMC3  HA4616600   3.589  -0.729  12.712  0.0000  0.0000  0.0000
 2110TMC3  HA4716601   3.961  -0.693  12.925  0.0000  0.0000  0.0000
 2110TMC3  HA4816602   3.889  -1.037  12.705  0.0000  0.0000  0.0000
 2110TMC3   O4916603   3.697  -1.045  12.520  0.0000  0.0000  0.0000
 2110TMC3   O5016604   3.616  -0.507  12.839  0.0000  0.0000  0.0000
 2110TMC3   O5116605   4.160  -0.854  12.877  0.0000  0.0000  0.0000
 2111TMC3  CA3716606   2.938  -0.410  12.271  0.0000  0.0000  0.0000
 2111TMC3  CA3816607   2.990  -0.536  12.280  0.0000  0.0000  0.0000
 2111TMC3  CA3916608   3.068  -0.588  12.178  0.0000  0.0000  0.0000
 2111TMC3  CA4016609   3.103  -0.514  12.068  0.0000  0.0000  0.0000
 2111TMC3  CA4116610   3.057  -0.388  12.057  0.0000  0.0000  0.0000
 2111TMC3  CA4216611   2.972  -0.334  12.159  0.0000  0.0000  0.0000
 2111TMC3  CB4316612   2.845  -0.346  12.361  0.0000  0.0000  0.0000
 2111TMC3  CB4416613   3.130  -0.725  12.182  0.0000  0.0000  0.0000
 2111TMC3  CB4516614   3.101  -0.302  11.939  0.0000  0.0000  0.0000
 2111TMC3  HA4616615   2.956  -0.600  12.361  0.0000  0.0000  0.0000
 2111TMC3  HA4716616   3.165  -0.552  11.987  0.0000  0.0000  0.0000
 2111TMC3  HA4816617   2.926  -0.238  12.137  0.0000  0.0000  0.0000
 2111TMC3   O4916618   2.777  -0.418  12.434  0.0000  0.0000  0.0000
 2111TMC3   O5016619   3.163  -0.780  12.076  0.0000  0.0000  0.0000
 2111TMC3   O5116620   3.115  -0.341  11.829  0.0000  0.0000  0.0000
 2112TMC3  CA3716621   2.169  -0.032  13.002  0.0000  0.0000  0.0000
 2112TMC3  CA3816622   2.280   0.025  12.940  0.0000  0.0000  0.0000
 2112TMC3  CA3916623   2.358  -0.057  12.868  0.0000  0.0000  0.0000
 2112TMC3  CA4016624   2.360  -0.193  12.881  0.0000  0.0000  0.0000
 2112TMC3  CA4116625   2.255  -0.255  12.953  0.0000  0.0000  0.0000
 2112TMC3  CA4216626   2.159  -0.170  13.014  0.0000  0.0000  0.0000
 2112TMC3  CB4316627   2.056   0.044  13.058  0.0000  0.0000  0.0000
 2112TMC3  CB4416628   2.465   0.005  12.785  0.0000  0.0000  0.0000
 2112TMC3  CB4516629   2.260  -0.404  12.965  0.0000  0.0000  0.0000
 2112TMC3  HA4616630   2.289   0.132  12.926  0.0000  0.0000  0.0000
 2112TMC3  HA4716631   2.442  -0.249  12.836  0.0000  0.0000  0.0000
 2112TMC3  HA4816632   2.078  -0.224  13.062  0.0000  0.0000  0.0000
 2112TMC3   O4916633   1.984  -0.007  13.143  0.0000  0.0000  0.0000
 2112TMC3   O5016634   2.503   0.114  12.813  0.0000  0.0000  0.0000
 2112TMC3   O5116635   2.340  -0.467  12.902  0.0000  0.0000  0.0000
 2113TMC3  CA3716636   3.866   0.128  12.889  0.0000  0.0000  0.0000
 2113TMC3  CA3816637   3.907   0.244  12.827  0.0000  0.0000  0.0000
 2113TMC3  CA3916638   4.043   0.281  12.831  0.0000  0.0000  0.0000
 2113TMC3  CA4016639   4.139   0.192  12.886  0.0000  0.0000  0.0000
 2113TMC3  CA4116640   4.096   0.076  12.951  0.0000  0.0000  0.0000
 2113TMC3  CA4216641   3.962   0.046  12.944  0.0000  0.0000  0.0000
 2113TMC3  CB4316642   3.721   0.099  12.889  0.0000  0.0000  0.0000
 2113TMC3  CB4416643   4.102   0.401  12.771  0.0000  0.0000  0.0000
 2113TMC3  CB4516644   4.194  -0.001  13.025  0.0000  0.0000  0.0000
 2113TMC3  HA4616645   3.833   0.319  12.802  0.0000  0.0000  0.0000
 2113TMC3  HA4716646   4.243   0.222  12.896  0.0000  0.0000  0.0000
 2113TMC3  HA4816647   3.933  -0.050  12.987  0.0000  0.0000  0.0000
 2113TMC3   O4916648   3.642   0.181  12.845  0.0000  0.0000  0.0000
 2113TMC3   O5016649   4.224   0.399  12.760  0.0000  0.0000  0.0000
 2113TMC3   O5116650   4.313   0.028  13.014  0.0000  0.0000  0.0000
 2114TMC3  CA3716651   2.658   0.474  12.173  0.0000  0.0000  0.0000
 2114TMC3  CA3816652   2.753   0.413  12.089  0.0000  0.0000  0.0000
 2114TMC3  CA3916653   2.884   0.452  12.108  0.0000  0.0000  0.0000
 2114TMC3  CA4016654   2.912   0.556  12.197  0.0000  0.0000  0.0000
 2114TMC3  CA4116655   2.822   0.620  12.274  0.0000  0.0000  0.0000
 2114TMC3  CA4216656   2.688   0.580  12.256  0.0000  0.0000  0.0000
 2114TMC3  CB4316657   2.524   0.410  12.187  0.0000  0.0000  0.0000
 2114TMC3  CB4416658   3.000   0.365  12.046  0.0000  0.0000  0.0000
 2114TMC3  CB4516659   2.867   0.727  12.372  0.0000  0.0000  0.0000
 2114TMC3  HA4616660   2.723   0.324  12.034  0.0000  0.0000  0.0000
 2114TMC3  HA4716661   3.014   0.581  12.226  0.0000  0.0000  0.0000
 2114TMC3  HA4816662   2.611   0.627  12.316  0.0000  0.0000  0.0000
 2114TMC3   O4916663   2.474   0.336  12.101  0.0000  0.0000  0.0000
 2114TMC3   O5016664   3.107   0.358  12.103  0.0000  0.0000  0.0000
 2114TMC3   O5116665   2.981   0.764  12.393  0.0000  0.0000  0.0000
 2115TMC2   C2016666   1.911   0.510  12.824  0.0000  0.0000  0.0000
 2115TMC2  CA2116667   2.010   0.609  12.863  0.0000  0.0000  0.0000
 2115TMC2  CA2216668   1.991   0.681  12.976  0.0000  0.0000  0.0000
 2115TMC2  CA2316669   2.086   0.760  13.040  0.0000  0.0000  0.0000
 2115TMC2  CA2416670   2.214   0.766  12.984  0.0000  0.0000  0.0000
 2115TMC2  CA2516671   2.236   0.699  12.860  0.0000  0.0000  0.0000
 2115TMC2  CA2616672   2.132   0.622  12.796  0.0000  0.0000  0.0000
 2115TMC2  CB2716673   2.055   0.828  13.171  0.0000  0.0000  0.0000
 2115TMC2  CB2816674   2.376   0.695  12.797  0.0000  0.0000  0.0000
 2115TMC2  HA2916675   1.892   0.672  13.021  0.0000  0.0000  0.0000
 2115TMC2  HA3016676   2.291   0.822  13.036  0.0000  0.0000  0.0000
 2115TMC2  HA3116677   2.166   0.566  12.709  0.0000  0.0000  0.0000
 2115TMC2  HO3216678   1.768   0.626  12.892  0.0000  0.0000  0.0000
 2115TMC2   O3316679   1.938   0.404  12.771  0.0000  0.0000  0.0000
 2115TMC2   O3416680   2.151   0.836  13.251  0.0000  0.0000  0.0000
 2115TMC2   O3516681   2.425   0.602  12.737  0.0000  0.0000  0.0000
 2115TMC2  OH3616682   1.776   0.537  12.853  0.0000  0.0000  0.0000
 2116TMC3  CA3716683   3.180  -0.955  13.103  0.0000  0.0000  0.0000
 2116TMC3  CA3816684   3.310  -1.007  13.088  0.0000  0.0000  0.0000
 2116TMC3  CA3916685   3.408  -0.972  13.183  0.0000  0.0000  0.0000
 2116TMC3  CA4016686   3.374  -0.901  13.300  0.0000  0.0000  0.0000
 2116TMC3  CA4116687   3.245  -0.855  13.314  0.0000  0.0000  0.0000
 2116TMC3  CA4216688   3.153  -0.877  13.214  0.0000  0.0000  0.0000
 2116TMC3  CB4316689   3.072  -0.952  12.992  0.0000  0.0000  0.0000
 2116TMC3  CB4416690   3.550  -1.009  13.160  0.0000  0.0000  0.0000
 2116TMC3  CB4516691   3.217  -0.769  13.425  0.0000  0.0000  0.0000
 2116TMC3  HA4616692   3.345  -1.045  12.993  0.0000  0.0000  0.0000
 2116TMC3  HA4716693   3.454  -0.879  13.370  0.0000  0.0000  0.0000
 2116TMC3  HA4816694   3.055  -0.835  13.234  0.0000  0.0000  0.0000
 2116TMC3   O4916695   3.011  -0.851  12.963  0.0000  0.0000  0.0000
 2116TMC3   O5016696   3.642  -0.952  13.215  0.0000  0.0000  0.0000
 2116TMC3   O5116697   3.120  -0.701  13.416  0.0000  0.0000  0.0000
 2117TMC3  CA3716698   3.707   1.296  12.796  0.0000  0.0000  0.0000
 2117TMC3  CA3816699   3.794   1.204  12.744  0.0000  0.0000  0.0000
 2117TMC3  CA3916700   3.924   1.198  12.795  0.0000  0.0000  0.0000
 2117TMC3  CA4016701   3.951   1.277  12.910  0.0000  0.0000  0.0000
 2117TMC3  CA4116702   3.857   1.361  12.968  0.0000  0.0000  0.0000
 2117TMC3  CA4216703   3.734   1.372  12.909  0.0000  0.0000  0.0000
 2117TMC3  CB4316704   3.562   1.282  12.755  0.0000  0.0000  0.0000
 2117TMC3  CB4416705   4.025   1.093  12.745  0.0000  0.0000  0.0000
 2117TMC3  CB4516706   3.881   1.438  13.100  0.0000  0.0000  0.0000
 2117TMC3  HA4616707   3.767   1.150  12.654  0.0000  0.0000  0.0000
 2117TMC3  HA4716708   4.049   1.264  12.955  0.0000  0.0000  0.0000
 2117TMC3  HA4816709   3.660   1.444  12.944  0.0000  0.0000  0.0000
 2117TMC3   O4916710   3.511   1.331  12.654  0.0000  0.0000  0.0000
 2117TMC3   O5016711   4.149   1.111  12.744  0.0000  0.0000  0.0000
 2117TMC3   O5116712   3.867   1.558  13.109  0.0000  0.0000  0.0000
 2118TMC3  CA3716713   1.445   0.569  13.204  0.0000  0.0000  0.0000
 2118TMC3  CA3816714   1.378   0.689  13.195  0.0000  0.0000  0.0000
 2118TMC3  CA3916715   1.244   0.696  13.230  0.0000  0.0000  0.0000
 2118TMC3  CA4016716   1.178   0.588  13.292  0.0000  0.0000  0.0000
 2118TMC3  CA4116717   1.256   0.472  13.303  0.0000  0.0000  0.0000
 2118TMC3  CA4216718   1.384   0.457  13.253  0.0000  0.0000  0.0000
 2118TMC3  CB4316719   1.583   0.560  13.141  0.0000  0.0000  0.0000
 2118TMC3  CB4416720   1.162   0.816  13.189  0.0000  0.0000  0.0000
 2118TMC3  CB4516721   1.181   0.359  13.366  0.0000  0.0000  0.0000
 2118TMC3  HA4616722   1.438   0.772  13.159  0.0000  0.0000  0.0000
 2118TMC3  HA4716723   1.078   0.592  13.333  0.0000  0.0000  0.0000
 2118TMC3  HA4816724   1.434   0.361  13.248  0.0000  0.0000  0.0000
 2118TMC3   O4916725   1.634   0.648  13.075  0.0000  0.0000  0.0000
 2118TMC3   O5016726   1.037   0.814  13.191  0.0000  0.0000  0.0000
 2118TMC3   O5116727   1.084   0.380  13.443  0.0000  0.0000  0.0000
 2119TMC3  CA3716728   3.667  -1.731  12.760  0.0000  0.0000  0.0000
 2119TMC3  CA3816729   3.563  -1.652  12.798  0.0000  0.0000  0.0000
 2119TMC3  CA3916730   3.544  -1.610  12.926  0.0000  0.0000  0.0000
 2119TMC3  CA4016731   3.642  -1.641  13.022  0.0000  0.0000  0.0000
 2119TMC3  CA4116732   3.756  -1.708  12.980  0.0000  0.0000  0.0000
 2119TMC3  CA4216733   3.773  -1.758  12.852  0.0000  0.0000  0.0000
 2119TMC3  CB4316734   3.674  -1.781  12.623  0.0000  0.0000  0.0000
 2119TMC3  CB4416735   3.419  -1.559  12.981  0.0000  0.0000  0.0000
 2119TMC3  CB4516736   3.867  -1.717  13.081  0.0000  0.0000  0.0000
 2119TMC3  HA4616737   3.481  -1.644  12.728  0.0000  0.0000  0.0000
 2119TMC3  HA4716738   3.650  -1.618  13.127  0.0000  0.0000  0.0000
 2119TMC3  HA4816739   3.861  -1.816  12.826  0.0000  0.0000  0.0000
 2119TMC3   O4916740   3.772  -1.755  12.552  0.0000  0.0000  0.0000
 2119TMC3   O5016741   3.403  -1.561  13.102  0.0000  0.0000  0.0000
 2119TMC3   O5116742   3.933  -1.623  13.112  0.0000  0.0000  0.0000
 2120TMC3  CA3716743   1.472   1.446  12.730  0.0000  0.0000  0.0000
 2120TMC3  CA3816744   1.469   1.563  12.655  0.0000  0.0000  0.0000
 2120TMC3  CA3916745   1.581   1.599  12.583  0.0000  0.0000  0.0000
 2120TMC3  CA4016746   1.683   1.504  12.563  0.0000  0.0000  0.0000
 2120TMC3  CA4116747   1.697   1.390  12.640  0.0000  0.0000  0.0000
 2120TMC3  CA4216748   1.585   1.357  12.720  0.0000  0.0000  0.0000
 2120TMC3  CB4316749   1.353   1.416  12.805  0.0000  0.0000  0.0000
 2120TMC3  CB4416750   1.568   1.724  12.501  0.0000  0.0000  0.0000
 2120TMC3  CB4516751   1.811   1.291  12.631  0.0000  0.0000  0.0000
 2120TMC3  HA4616752   1.384   1.631  12.661  0.0000  0.0000  0.0000
 2120TMC3  HA4716753   1.764   1.513  12.491  0.0000  0.0000  0.0000
 2120TMC3  HA4816754   1.586   1.263  12.774  0.0000  0.0000  0.0000
 2120TMC3   O4916755   1.257   1.495  12.808  0.0000  0.0000  0.0000
 2120TMC3   O5016756   1.460   1.779  12.484  0.0000  0.0000  0.0000
 2120TMC3   O5116757   1.797   1.176  12.604  0.0000  0.0000  0.0000
 2121TMC3  CA3716758   2.324  -1.154  13.154  0.0000  0.0000  0.0000
 2121TMC3  CA3816759   2.250  -1.223  13.248  0.0000  0.0000  0.0000
 2121TMC3  CA3916760   2.112  -1.258  13.229  0.0000  0.0000  0.0000
 2121TMC3  CA4016761   2.044  -1.202  13.116  0.0000  0.0000  0.0000
 2121TMC3  CA4116762   2.118  -1.130  13.029  0.0000  0.0000  0.0000
 2121TMC3  CA4216763   2.256  -1.110  13.040  0.0000  0.0000  0.0000
 2121TMC3  CB4316764   2.467  -1.120  13.174  0.0000  0.0000  0.0000
 2121TMC3  CB4416765   2.038  -1.322  13.342  0.0000  0.0000  0.0000
 2121TMC3  CB4516766   2.054  -1.069  12.905  0.0000  0.0000  0.0000
 2121TMC3  HA4616767   2.313  -1.257  13.329  0.0000  0.0000  0.0000
 2121TMC3  HA4716768   1.940  -1.222  13.092  0.0000  0.0000  0.0000
 2121TMC3  HA4816769   2.305  -1.051  12.964  0.0000  0.0000  0.0000
 2121TMC3   O4916770   2.525  -1.097  13.071  0.0000  0.0000  0.0000
 2121TMC3   O5016771   2.109  -1.364  13.430  0.0000  0.0000  0.0000
 2121TMC3   O5116772   2.005  -1.140  12.816  0.0000  0.0000  0.0000
 2122TMC3  CA3716773   2.379  -0.355  12.337  0.0000  0.0000  0.0000
 2122TMC3  CA3816774   2.357  -0.233  12.399  0.0000  0.0000  0.0000
 2122TMC3  CA3916775   2.259  -0.212  12.489  0.0000  0.0000  0.0000
 2122TMC3  CA4016776   2.182  -0.322  12.523  0.0000  0.0000  0.0000
 2122TMC3  CA4116777   2.203  -0.445  12.469  0.0000  0.0000  0.0000
 2122TMC3  CA4216778   2.303  -0.465  12.378  0.0000  0.0000  0.0000
 2122TMC3  CB4316779   2.489  -0.369  12.243  0.0000  0.0000  0.0000
 2122TMC3  CB4416780   2.225  -0.072  12.528  0.0000  0.0000  0.0000
 2122TMC3  CB4516781   2.128  -0.559  12.517  0.0000  0.0000  0.0000
 2122TMC3  HA4616782   2.416  -0.145  12.372  0.0000  0.0000  0.0000
 2122TMC3  HA4716783   2.112  -0.306  12.604  0.0000  0.0000  0.0000
 2122TMC3  HA4816784   2.327  -0.567  12.347  0.0000  0.0000  0.0000
 2122TMC3   O4916785   2.532  -0.479  12.221  0.0000  0.0000  0.0000
 2122TMC3   O5016786   2.183  -0.038  12.634  0.0000  0.0000  0.0000
 2122TMC3   O5116787   2.078  -0.562  12.631  0.0000  0.0000  0.0000
 2123TMC3  CA3716788   3.390   0.795  12.040  0.0000  0.0000  0.0000
 2123TMC3  CA3816789   3.257   0.791  12.001  0.0000  0.0000  0.0000
 2123TMC3  CA3916790   3.155   0.849  12.080  0.0000  0.0000  0.0000
 2123TMC3  CA4016791   3.180   0.879  12.217  0.0000  0.0000  0.0000
 2123TMC3  CA4116792   3.316   0.884  12.262  0.0000  0.0000  0.0000
 2123TMC3  CA4216793   3.416   0.835  12.173  0.0000  0.0000  0.0000
 2123TMC3  CB4316794   3.502   0.757  11.937  0.0000  0.0000  0.0000
 2123TMC3  CB4416795   3.012   0.852  12.028  0.0000  0.0000  0.0000
 2123TMC3  CB4516796   3.348   0.934  12.392  0.0000  0.0000  0.0000
 2123TMC3  HA4616797   3.235   0.757  11.900  0.0000  0.0000  0.0000
 2123TMC3  HA4716798   3.101   0.933  12.268  0.0000  0.0000  0.0000
 2123TMC3  HA4816799   3.517   0.857  12.207  0.0000  0.0000  0.0000
 2123TMC3   O4916800   3.470   0.742  11.818  0.0000  0.0000  0.0000
 2123TMC3   O5016801   2.938   0.919  12.097  0.0000  0.0000  0.0000
 2123TMC3   O5116802   3.470   0.950  12.407  0.0000  0.0000  0.0000
 2124TMC2   C2016803   3.096  -0.755  11.699  0.0000  0.0000  0.0000
 2124TMC2  CA2116804   2.959  -0.730  11.654  0.0000  0.0000  0.0000
 2124TMC2  CA2216805   2.886  -0.812  11.560  0.0000  0.0000  0.0000
 2124TMC2  CA2316806   2.759  -0.777  11.516  0.0000  0.0000  0.0000
 2124TMC2  CA2416807   2.697  -0.661  11.566  0.0000  0.0000  0.0000
 2124TMC2  CA2516808   2.767  -0.579  11.653  0.0000  0.0000  0.0000
 2124TMC2  CA2616809   2.894  -0.614  11.699  0.0000  0.0000  0.0000
 2124TMC2  CB2716810   2.680  -0.870  11.426  0.0000  0.0000  0.0000
 2124TMC2  CB2816811   2.700  -0.460  11.712  0.0000  0.0000  0.0000
 2124TMC2  HA2916812   2.930  -0.907  11.530  0.0000  0.0000  0.0000
 2124TMC2  HA3016813   2.594  -0.642  11.538  0.0000  0.0000  0.0000
 2124TMC2  HA3116814   2.944  -0.559  11.778  0.0000  0.0000  0.0000
 2124TMC2  HO3216815   3.114  -0.897  11.578  0.0000  0.0000  0.0000
 2124TMC2   O3316816   3.147  -0.687  11.785  0.0000  0.0000  0.0000
 2124TMC2   O3416817   2.689  -0.991  11.448  0.0000  0.0000  0.0000
 2124TMC2   O3516818   2.576  -0.451  11.718  0.0000  0.0000  0.0000
 2124TMC2  OH3616819   3.170  -0.848  11.640  0.0000  0.0000  0.0000
 2125TMC3  CA3716820   4.097  -0.009  11.817  0.0000  0.0000  0.0000
 2125TMC3  CA3816821   4.047   0.100  11.882  0.0000  0.0000  0.0000
 2125TMC3  CA3916822   4.063   0.230  11.831  0.0000  0.0000  0.0000
 2125TMC3  CA4016823   4.109   0.243  11.700  0.0000  0.0000  0.0000
 2125TMC3  CA4116824   4.161   0.131  11.632  0.0000  0.0000  0.0000
 2125TMC3  CA4216825   4.153   0.006  11.694  0.0000  0.0000  0.0000
 2125TMC3  CB4316826   4.120  -0.141  11.888  0.0000  0.0000  0.0000
 2125TMC3  CB4416827   3.991   0.348  11.882  0.0000  0.0000  0.0000
 2125TMC3  CB4516828   4.200   0.139  11.487  0.0000  0.0000  0.0000
 2125TMC3  HA4616829   3.997   0.101  11.979  0.0000  0.0000  0.0000
 2125TMC3  HA4716830   4.107   0.333  11.639  0.0000  0.0000  0.0000
 2125TMC3  HA4816831   4.204  -0.074  11.642  0.0000  0.0000  0.0000
 2125TMC3   O4916832   4.088  -0.163  12.006  0.0000  0.0000  0.0000
 2125TMC3   O5016833   3.926   0.338  11.983  0.0000  0.0000  0.0000
 2125TMC3   O5116834   4.296   0.209  11.451  0.0000  0.0000  0.0000
 2126TMC3  CA3716835   2.992  -0.435  13.697  0.0000  0.0000  0.0000
 2126TMC3  CA3816836   2.971  -0.411  13.830  0.0000  0.0000  0.0000
 2126TMC3  CA3916837   2.880  -0.491  13.902  0.0000  0.0000  0.0000
 2126TMC3  CA4016838   2.812  -0.600  13.839  0.0000  0.0000  0.0000
 2126TMC3  CA4116839   2.846  -0.630  13.710  0.0000  0.0000  0.0000
 2126TMC3  CA4216840   2.939  -0.552  13.640  0.0000  0.0000  0.0000
 2126TMC3  CB4316841   3.077  -0.354  13.608  0.0000  0.0000  0.0000
 2126TMC3  CB4416842   2.848  -0.445  14.042  0.0000  0.0000  0.0000
 2126TMC3  CB4516843   2.777  -0.741  13.644  0.0000  0.0000  0.0000
 2126TMC3  HA4616844   2.998  -0.317  13.877  0.0000  0.0000  0.0000
 2126TMC3  HA4716845   2.736  -0.658  13.889  0.0000  0.0000  0.0000
 2126TMC3  HA4816846   2.963  -0.568  13.535  0.0000  0.0000  0.0000
 2126TMC3   O4916847   3.051  -0.331  13.488  0.0000  0.0000  0.0000
 2126TMC3   O5016848   2.877  -0.341  14.093  0.0000  0.0000  0.0000
 2126TMC3   O5116849   2.670  -0.784  13.690  0.0000  0.0000  0.0000
 2127TMC3  CA3716850   4.062  -0.899  12.091  0.0000  0.0000  0.0000
 2127TMC3  CA3816851   4.018  -1.030  12.062  0.0000  0.0000  0.0000
 2127TMC3  CA3916852   3.973  -1.121  12.163  0.0000  0.0000  0.0000
 2127TMC3  CA4016853   3.958  -1.077  12.294  0.0000  0.0000  0.0000
 2127TMC3  CA4116854   3.996  -0.944  12.325  0.0000  0.0000  0.0000
 2127TMC3  CA4216855   4.055  -0.863  12.227  0.0000  0.0000  0.0000
 2127TMC3  CB4316856   4.121  -0.809  11.985  0.0000  0.0000  0.0000
 2127TMC3  CB4416857   3.933  -1.263  12.135  0.0000  0.0000  0.0000
 2127TMC3  CB4516858   3.996  -0.888  12.464  0.0000  0.0000  0.0000
 2127TMC3  HA4616859   4.022  -1.068  11.961  0.0000  0.0000  0.0000
 2127TMC3  HA4716860   3.906  -1.133  12.370  0.0000  0.0000  0.0000
 2127TMC3  HA4816861   4.096  -0.767  12.259  0.0000  0.0000  0.0000
 2127TMC3   O4916862   4.132  -0.848  11.869  0.0000  0.0000  0.0000
 2127TMC3   O5016863   3.871  -1.325  12.221  0.0000  0.0000  0.0000
 2127TMC3   O5116864   4.072  -0.926  12.551  0.0000  0.0000  0.0000
 2128TMC3  CA3716865   2.268   0.285  11.520  0.0000  0.0000  0.0000
 2128TMC3  CA3816866   2.256   0.194  11.626  0.0000  0.0000  0.0000
 2128TMC3  CA3916867   2.312   0.219  11.753  0.0000  0.0000  0.0000
 2128TMC3  CA4016868   2.361   0.348  11.779  0.0000  0.0000  0.0000
 2128TMC3  CA4116869   2.390   0.432  11.668  0.0000  0.0000  0.0000
 2128TMC3  CA4216870   2.340   0.398  11.543  0.0000  0.0000  0.0000
 2128TMC3  CB4316871   2.213   0.252  11.385  0.0000  0.0000  0.0000
 2128TMC3  CB4416872   2.287   0.124  11.865  0.0000  0.0000  0.0000
 2128TMC3  CB4516873   2.473   0.554  11.677  0.0000  0.0000  0.0000
 2128TMC3  HA4616874   2.193   0.109  11.606  0.0000  0.0000  0.0000
 2128TMC3  HA4716875   2.388   0.381  11.879  0.0000  0.0000  0.0000
 2128TMC3  HA4816876   2.352   0.464  11.458  0.0000  0.0000  0.0000
 2128TMC3   O4916877   2.230   0.139  11.343  0.0000  0.0000  0.0000
 2128TMC3   O5016878   2.276   0.166  11.980  0.0000  0.0000  0.0000
 2128TMC3   O5116879   2.476   0.633  11.588  0.0000  0.0000  0.0000
 2129TMC3  CA3716880   2.351  -0.410  14.032  0.0000  0.0000  0.0000
 2129TMC3  CA3816881   2.365  -0.377  14.168  0.0000  0.0000  0.0000
 2129TMC3  CA3916882   2.375  -0.243  14.206  0.0000  0.0000  0.0000
 2129TMC3  CA4016883   2.366  -0.141  14.114  0.0000  0.0000  0.0000
 2129TMC3  CA4116884   2.348  -0.172  13.983  0.0000  0.0000  0.0000
 2129TMC3  CA4216885   2.332  -0.304  13.942  0.0000  0.0000  0.0000
 2129TMC3  CB4316886   2.333  -0.550  13.994  0.0000  0.0000  0.0000
 2129TMC3  CB4416887   2.422  -0.209  14.352  0.0000  0.0000  0.0000
 2129TMC3  CB4516888   2.323  -0.060  13.885  0.0000  0.0000  0.0000
 2129TMC3  HA4616889   2.383  -0.456  14.240  0.0000  0.0000  0.0000
 2129TMC3  HA4716890   2.372  -0.039  14.149  0.0000  0.0000  0.0000
 2129TMC3  HA4816891   2.312  -0.317  13.836  0.0000  0.0000  0.0000
 2129TMC3   O4916892   2.371  -0.639  14.067  0.0000  0.0000  0.0000
 2129TMC3   O5016893   2.397  -0.097  14.389  0.0000  0.0000  0.0000
 2129TMC3   O5116894   2.330  -0.079  13.764  0.0000  0.0000  0.0000
 2130TMC3  CA3716895   1.638  -1.081  12.737  0.0000  0.0000  0.0000
 2130TMC3  CA3816896   1.511  -1.143  12.735  0.0000  0.0000  0.0000
 2130TMC3  CA3916897   1.479  -1.223  12.627  0.0000  0.0000  0.0000
 2130TMC3  CA4016898   1.566  -1.230  12.525  0.0000  0.0000  0.0000
 2130TMC3  CA4116899   1.698  -1.183  12.528  0.0000  0.0000  0.0000
 2130TMC3  CA4216900   1.734  -1.107  12.641  0.0000  0.0000  0.0000
 2130TMC3  CB4316901   1.672  -0.979  12.846  0.0000  0.0000  0.0000
 2130TMC3  CB4416902   1.367  -1.315  12.644  0.0000  0.0000  0.0000
 2130TMC3  CB4516903   1.797  -1.206  12.408  0.0000  0.0000  0.0000
 2130TMC3  HA4616904   1.448  -1.136  12.823  0.0000  0.0000  0.0000
 2130TMC3  HA4716905   1.544  -1.288  12.436  0.0000  0.0000  0.0000
 2130TMC3  HA4816906   1.829  -1.054  12.645  0.0000  0.0000  0.0000
 2130TMC3   O4916907   1.754  -0.990  12.936  0.0000  0.0000  0.0000
 2130TMC3   O5016908   1.269  -1.272  12.705  0.0000  0.0000  0.0000
 2130TMC3   O5116909   1.797  -1.323  12.365  0.0000  0.0000  0.0000
 2131TMC3  CA3716910   1.727  -0.953  13.848  0.0000  0.0000  0.0000
 2131TMC3  CA3816911   1.674  -0.823  13.827  0.0000  0.0000  0.0000
 2131TMC3  CA3916912   1.745  -0.717  13.865  0.0000  0.0000  0.0000
 2131TMC3  CA4016913   1.874  -0.728  13.923  0.0000  0.0000  0.0000
 2131TMC3  CA4116914   1.926  -0.854  13.945  0.0000  0.0000  0.0000
 2131TMC3  CA4216915   1.849  -0.967  13.908  0.0000  0.0000  0.0000
 2131TMC3  CB4316916   1.672  -1.076  13.782  0.0000  0.0000  0.0000
 2131TMC3  CB4416917   1.685  -0.574  13.854  0.0000  0.0000  0.0000
 2131TMC3  CB4516918   2.054  -0.865  14.027  0.0000  0.0000  0.0000
 2131TMC3  HA4616919   1.576  -0.811  13.781  0.0000  0.0000  0.0000
 2131TMC3  HA4716920   1.931  -0.645  13.962  0.0000  0.0000  0.0000
 2131TMC3  HA4816921   1.890  -1.066  13.922  0.0000  0.0000  0.0000
 2131TMC3   O4916922   1.575  -1.067  13.715  0.0000  0.0000  0.0000
 2131TMC3   O5016923   1.773  -0.491  13.821  0.0000  0.0000  0.0000
 2131TMC3   O5116924   2.096  -0.771  14.085  0.0000  0.0000  0.0000
 2132TMC3  CA3716925   3.979  -0.814  13.706  0.0000  0.0000  0.0000
 2132TMC3  CA3816926   3.981  -0.682  13.660  0.0000  0.0000  0.0000
 2132TMC3  CA3916927   4.078  -0.652  13.560  0.0000  0.0000  0.0000
 2132TMC3  CA4016928   4.147  -0.753  13.496  0.0000  0.0000  0.0000
 2132TMC3  CA4116929   4.135  -0.883  13.538  0.0000  0.0000  0.0000
 2132TMC3  CA4216930   4.054  -0.913  13.645  0.0000  0.0000  0.0000
 2132TMC3  CB4316931   3.893  -0.848  13.820  0.0000  0.0000  0.0000
 2132TMC3  CB4416932   4.101  -0.506  13.515  0.0000  0.0000  0.0000
 2132TMC3  CB4516933   4.192  -0.989  13.449  0.0000  0.0000  0.0000
 2132TMC3  HA4616934   3.922  -0.606  13.712  0.0000  0.0000  0.0000
 2132TMC3  HA4716935   4.207  -0.738  13.407  0.0000  0.0000  0.0000
 2132TMC3  HA4816936   4.050  -1.018  13.671  0.0000  0.0000  0.0000
 2132TMC3   O4916937   3.818  -0.764  13.869  0.0000  0.0000  0.0000
 2132TMC3   O5016938   4.027  -0.424  13.571  0.0000  0.0000  0.0000
 2132TMC3   O5116939   4.213  -0.971  13.334  0.0000  0.0000  0.0000
 2133TMC3  CA3716940   2.368  -0.694  11.978  0.0000  0.0000  0.0000
 2133TMC3  CA3816941   2.324  -0.815  12.020  0.0000  0.0000  0.0000
 2133TMC3  CA3916942   2.406  -0.926  12.045  0.0000  0.0000  0.0000
 2133TMC3  CA4016943   2.548  -0.900  12.033  0.0000  0.0000  0.0000
 2133TMC3  CA4116944   2.594  -0.777  11.986  0.0000  0.0000  0.0000
 2133TMC3  CA4216945   2.501  -0.678  11.956  0.0000  0.0000  0.0000
 2133TMC3  CB4316946   2.266  -0.585  11.969  0.0000  0.0000  0.0000
 2133TMC3  CB4416947   2.350  -1.060  12.087  0.0000  0.0000  0.0000
 2133TMC3  CB4516948   2.741  -0.751  11.976  0.0000  0.0000  0.0000
 2133TMC3  HA4616949   2.216  -0.824  12.024  0.0000  0.0000  0.0000
 2133TMC3  HA4716950   2.614  -0.978  12.070  0.0000  0.0000  0.0000
 2133TMC3  HA4816951   2.543  -0.579  11.941  0.0000  0.0000  0.0000
 2133TMC3   O4916952   2.150  -0.614  11.966  0.0000  0.0000  0.0000
 2133TMC3   O5016953   2.434  -1.151  12.099  0.0000  0.0000  0.0000
 2133TMC3   O5116954   2.780  -0.637  11.954  0.0000  0.0000  0.0000
 2134TMC3  CA3716955   4.363  -0.345  12.833  0.0000  0.0000  0.0000
 2134TMC3  CA3816956   4.425  -0.468  12.850  0.0000  0.0000  0.0000
 2134TMC3  CA3916957   4.559  -0.469  12.893  0.0000  0.0000  0.0000
 2134TMC3  CA4016958   4.628  -0.355  12.916  0.0000  0.0000  0.0000
 2134TMC3  CA4116959   4.568  -0.228  12.897  0.0000  0.0000  0.0000
 2134TMC3  CA4216960   4.432  -0.227  12.862  0.0000  0.0000  0.0000
 2134TMC3  CB4316961   4.219  -0.341  12.794  0.0000  0.0000  0.0000
 2134TMC3  CB4416962   4.617  -0.598  12.941  0.0000  0.0000  0.0000
 2134TMC3  CB4516963   4.649  -0.110  12.927  0.0000  0.0000  0.0000
 2134TMC3  HA4616964   4.374  -0.564  12.846  0.0000  0.0000  0.0000
 2134TMC3  HA4716965   4.734  -0.361  12.938  0.0000  0.0000  0.0000
 2134TMC3  HA4816966   4.381  -0.133  12.845  0.0000  0.0000  0.0000
 2134TMC3   O4916967   4.151  -0.237  12.797  0.0000  0.0000  0.0000
 2134TMC3   O5016968   4.617  -0.699  12.869  0.0000  0.0000  0.0000
 2134TMC3   O5116969   4.770  -0.112  12.911  0.0000  0.0000  0.0000
 2135TMC3  CA3716970   2.700  -1.806  12.908  0.0000  0.0000  0.0000
 2135TMC3  CA3816971   2.703  -1.683  12.848  0.0000  0.0000  0.0000
 2135TMC3  CA3916972   2.827  -1.622  12.816  0.0000  0.0000  0.0000
 2135TMC3  CA4016973   2.942  -1.706  12.829  0.0000  0.0000  0.0000
 2135TMC3  CA4116974   2.942  -1.829  12.896  0.0000  0.0000  0.0000
 2135TMC3  CA4216975   2.821  -1.879  12.929  0.0000  0.0000  0.0000
 2135TMC3  CB4316976   2.570  -1.858  12.947  0.0000  0.0000  0.0000
 2135TMC3  CB4416977   2.836  -1.496  12.737  0.0000  0.0000  0.0000
 2135TMC3  CB4516978   3.050  -1.927  12.897  0.0000  0.0000  0.0000
 2135TMC3  HA4616979   2.609  -1.628  12.841  0.0000  0.0000  0.0000
 2135TMC3  HA4716980   3.043  -1.674  12.802  0.0000  0.0000  0.0000
 2135TMC3  HA4816981   2.807  -1.974  12.979  0.0000  0.0000  0.0000
 2135TMC3   O4916982   2.484  -1.773  12.976  0.0000  0.0000  0.0000
 2135TMC3   O5016983   2.943  -1.449  12.713  0.0000  0.0000  0.0000
 2135TMC3   O5116984   3.023  -2.050  12.915  0.0000  0.0000  0.0000
 2136TMC3  CA3716985   1.194  -0.706  13.192  0.0000  0.0000  0.0000
 2136TMC3  CA3816986   1.246  -0.603  13.265  0.0000  0.0000  0.0000
 2136TMC3  CA3916987   1.175  -0.480  13.277  0.0000  0.0000  0.0000
 2136TMC3  CA4016988   1.066  -0.461  13.202  0.0000  0.0000  0.0000
 2136TMC3  CA4116989   1.016  -0.554  13.116  0.0000  0.0000  0.0000
 2136TMC3  CA4216990   1.077  -0.683  13.114  0.0000  0.0000  0.0000
 2136TMC3  CB4316991   1.252  -0.839  13.170  0.0000  0.0000  0.0000
 2136TMC3  CB4416992   1.230  -0.376  13.364  0.0000  0.0000  0.0000
 2136TMC3  CB4516993   0.904  -0.519  13.022  0.0000  0.0000  0.0000
 2136TMC3  HA4616994   1.344  -0.602  13.312  0.0000  0.0000  0.0000
 2136TMC3  HA4716995   1.015  -0.367  13.220  0.0000  0.0000  0.0000
 2136TMC3  HA4816996   1.046  -0.752  13.036  0.0000  0.0000  0.0000
 2136TMC3   O4916997   1.214  -0.901  13.074  0.0000  0.0000  0.0000
 2136TMC3   O5016998   1.296  -0.402  13.462  0.0000  0.0000  0.0000
 2136TMC3   O5116999   0.839  -0.611  12.980  0.0000  0.0000  0.0000
 2137TMC3  CA3717000   2.996  -1.862  13.283  0.0000  0.0000  0.0000
 2137TMC3  CA3817001   3.128  -1.851  13.233  0.0000  0.0000  0.0000
 2137TMC3  CA3917002   3.215  -1.964  13.233  0.0000  0.0000  0.0000
 2137TMC3  CA4017003   3.166  -2.082  13.291  0.0000  0.0000  0.0000
 2137TMC3  CA4117004   3.042  -2.090  13.345  0.0000  0.0000  0.0000
 2137TMC3  CA4217005   2.954  -1.986  13.336  0.0000  0.0000  0.0000
 2137TMC3  CB4317006   2.922  -1.735  13.290  0.0000  0.0000  0.0000
 2137TMC3  CB4417007   3.355  -1.948  13.185  0.0000  0.0000  0.0000
 2137TMC3  CB4517008   2.981  -2.215  13.402  0.0000  0.0000  0.0000
 2137TMC3  HA4617009   3.164  -1.752  13.204  0.0000  0.0000  0.0000
 2137TMC3  HA4717010   3.224  -2.174  13.295  0.0000  0.0000  0.0000
 2137TMC3  HA4817011   2.857  -1.986  13.385  0.0000  0.0000  0.0000
 2137TMC3   O4917012   2.970  -1.624  13.282  0.0000  0.0000  0.0000
 2137TMC3   O5017013   3.384  -1.842  13.125  0.0000  0.0000  0.0000
 2137TMC3   O5117014   2.857  -2.223  13.417  0.0000  0.0000  0.0000
 2138TMC3  CA3717015   1.613  -0.197  12.922  0.0000  0.0000  0.0000
 2138TMC3  CA3817016   1.699  -0.293  12.970  0.0000  0.0000  0.0000
 2138TMC3  CA3917017   1.750  -0.283  13.098  0.0000  0.0000  0.0000
 2138TMC3  CA4017018   1.724  -0.174  13.178  0.0000  0.0000  0.0000
 2138TMC3  CA4117019   1.643  -0.066  13.126  0.0000  0.0000  0.0000
 2138TMC3  CA4217020   1.594  -0.077  12.999  0.0000  0.0000  0.0000
 2138TMC3  CB4317021   1.552  -0.204  12.789  0.0000  0.0000  0.0000
 2138TMC3  CB4417022   1.832  -0.396  13.151  0.0000  0.0000  0.0000
 2138TMC3  CB4517023   1.612   0.051  13.209  0.0000  0.0000  0.0000
 2138TMC3  HA4617024   1.733  -0.368  12.899  0.0000  0.0000  0.0000
 2138TMC3  HA4717025   1.767  -0.161  13.277  0.0000  0.0000  0.0000
 2138TMC3  HA4817026   1.530   0.001  12.960  0.0000  0.0000  0.0000
 2138TMC3   O4917027   1.498  -0.104  12.745  0.0000  0.0000  0.0000
 2138TMC3   O5017028   1.932  -0.372  13.216  0.0000  0.0000  0.0000
 2138TMC3   O5117029   1.518   0.126  13.186  0.0000  0.0000  0.0000
 2139TMC3  CA3717030   4.548  -1.031  13.607  0.0000  0.0000  0.0000
 2139TMC3  CA3817031   4.607  -1.124  13.691  0.0000  0.0000  0.0000
 2139TMC3  CA3917032   4.687  -1.224  13.634  0.0000  0.0000  0.0000
 2139TMC3  CA4017033   4.687  -1.240  13.496  0.0000  0.0000  0.0000
 2139TMC3  CA4117034   4.616  -1.151  13.416  0.0000  0.0000  0.0000
 2139TMC3  CA4217035   4.557  -1.041  13.470  0.0000  0.0000  0.0000
 2139TMC3  CB4317036   4.497  -0.908  13.668  0.0000  0.0000  0.0000
 2139TMC3  CB4417037   4.755  -1.319  13.723  0.0000  0.0000  0.0000
 2139TMC3  CB4517038   4.616  -1.176  13.269  0.0000  0.0000  0.0000
 2139TMC3  HA4617039   4.617  -1.110  13.798  0.0000  0.0000  0.0000
 2139TMC3  HA4717040   4.732  -1.327  13.451  0.0000  0.0000  0.0000
 2139TMC3  HA4817041   4.511  -0.963  13.410  0.0000  0.0000  0.0000
 2139TMC3   O4917042   4.438  -0.825  13.597  0.0000  0.0000  0.0000
 2139TMC3   O5017043   4.706  -1.358  13.824  0.0000  0.0000  0.0000
 2139TMC3   O5117044   4.612  -1.286  13.221  0.0000  0.0000  0.0000
 2140TMC3  CA3717045   3.645  -1.926  12.159  0.0000  0.0000  0.0000
 2140TMC3  CA3817046   3.755  -1.980  12.228  0.0000  0.0000  0.0000
 2140TMC3  CA3917047   3.747  -2.073  12.336  0.0000  0.0000  0.0000
 2140TMC3  CA4017048   3.619  -2.113  12.373  0.0000  0.0000  0.0000
 2140TMC3  CA4117049   3.507  -2.063  12.306  0.0000  0.0000  0.0000
 2140TMC3  CA4217050   3.520  -1.971  12.197  0.0000  0.0000  0.0000
 2140TMC3  CB4317051   3.657  -1.845  12.038  0.0000  0.0000  0.0000
 2140TMC3  CB4417052   3.863  -2.125  12.408  0.0000  0.0000  0.0000
 2140TMC3  CB4517053   3.369  -2.092  12.349  0.0000  0.0000  0.0000
 2140TMC3  HA4617054   3.852  -1.947  12.192  0.0000  0.0000  0.0000
 2140TMC3  HA4717055   3.604  -2.182  12.456  0.0000  0.0000  0.0000
 2140TMC3  HA4817056   3.433  -1.924  12.152  0.0000  0.0000  0.0000
 2140TMC3   O4917057   3.574  -1.844  11.950  0.0000  0.0000  0.0000
 2140TMC3   O5017058   3.855  -2.229  12.472  0.0000  0.0000  0.0000
 2140TMC3   O5117059   3.271  -2.022  12.328  0.0000  0.0000  0.0000
 2141TMC2   C2017060   2.872  -1.816  12.529  0.0000  0.0000  0.0000
 2141TMC2  CA2117061   2.936  -1.700  12.459  0.0000  0.0000  0.0000
 2141TMC2  CA2217062   2.866  -1.613  12.364  0.0000  0.0000  0.0000
 2141TMC2  CA2317063   2.937  -1.508  12.303  0.0000  0.0000  0.0000
 2141TMC2  CA2417064   3.072  -1.480  12.324  0.0000  0.0000  0.0000
 2141TMC2  CA2517065   3.139  -1.563  12.423  0.0000  0.0000  0.0000
 2141TMC2  CA2617066   3.071  -1.670  12.481  0.0000  0.0000  0.0000
 2141TMC2  CB2717067   2.862  -1.426  12.199  0.0000  0.0000  0.0000
 2141TMC2  CB2817068   3.281  -1.544  12.462  0.0000  0.0000  0.0000
 2141TMC2  HA2917069   2.762  -1.631  12.338  0.0000  0.0000  0.0000
 2141TMC2  HA3017070   3.119  -1.391  12.282  0.0000  0.0000  0.0000
 2141TMC2  HA3117071   3.118  -1.735  12.554  0.0000  0.0000  0.0000
 2141TMC2  HO3217072   2.705  -1.779  12.433  0.0000  0.0000  0.0000
 2141TMC2   O3317073   2.930  -1.882  12.608  0.0000  0.0000  0.0000
 2141TMC2   O3417074   2.771  -1.486  12.141  0.0000  0.0000  0.0000
 2141TMC2   O3517075   3.341  -1.637  12.506  0.0000  0.0000  0.0000
 2141TMC2  OH3617076   2.748  -1.845  12.490  0.0000  0.0000  0.0000
 2142TMC3  CA3717077   3.700  -0.058  13.899  0.0000  0.0000  0.0000
 2142TMC3  CA3817078   3.841  -0.055  13.884  0.0000  0.0000  0.0000
 2142TMC3  CA3917079   3.909  -0.169  13.833  0.0000  0.0000  0.0000
 2142TMC3  CA4017080   3.840  -0.282  13.805  0.0000  0.0000  0.0000
 2142TMC3  CA4117081   3.702  -0.292  13.824  0.0000  0.0000  0.0000
 2142TMC3  CA4217082   3.632  -0.177  13.861  0.0000  0.0000  0.0000
 2142TMC3  CB4317083   3.618   0.052  13.941  0.0000  0.0000  0.0000
 2142TMC3  CB4417084   4.056  -0.167  13.823  0.0000  0.0000  0.0000
 2142TMC3  CB4517085   3.629  -0.415  13.768  0.0000  0.0000  0.0000
 2142TMC3  HA4617086   3.892   0.037  13.915  0.0000  0.0000  0.0000
 2142TMC3  HA4717087   3.904  -0.364  13.774  0.0000  0.0000  0.0000
 2142TMC3  HA4817088   3.524  -0.174  13.853  0.0000  0.0000  0.0000
 2142TMC3   O4917089   3.495   0.041  13.953  0.0000  0.0000  0.0000
 2142TMC3   O5017090   4.122  -0.273  13.826  0.0000  0.0000  0.0000
 2142TMC3   O5117091   3.692  -0.511  13.718  0.0000  0.0000  0.0000
 2143TMC3  CA3717092   2.944  -0.793  12.639  0.0000  0.0000  0.0000
 2143TMC3  CA3817093   3.079  -0.790  12.673  0.0000  0.0000  0.0000
 2143TMC3  CA3917094   3.142  -0.677  12.724  0.0000  0.0000  0.0000
 2143TMC3  CA4017095   3.058  -0.575  12.768  0.0000  0.0000  0.0000
 2143TMC3  CA4117096   2.920  -0.583  12.751  0.0000  0.0000  0.0000
 2143TMC3  CA4217097   2.863  -0.687  12.682  0.0000  0.0000  0.0000
 2143TMC3  CB4317098   2.900  -0.908  12.556  0.0000  0.0000  0.0000
 2143TMC3  CB4417099   3.287  -0.679  12.743  0.0000  0.0000  0.0000
 2143TMC3  CB4517100   2.827  -0.465  12.780  0.0000  0.0000  0.0000
 2143TMC3  HA4617101   3.142  -0.871  12.637  0.0000  0.0000  0.0000
 2143TMC3  HA4717102   3.111  -0.492  12.815  0.0000  0.0000  0.0000
 2143TMC3  HA4817103   2.758  -0.685  12.656  0.0000  0.0000  0.0000
 2143TMC3   O4917104   2.972  -0.968  12.476  0.0000  0.0000  0.0000
 2143TMC3   O5017105   3.330  -0.768  12.818  0.0000  0.0000  0.0000
 2143TMC3   O5117106   2.712  -0.455  12.729  0.0000  0.0000  0.0000
 2144TMC3  CA3717107   2.278  -0.289  11.455  0.0000  0.0000  0.0000
 2144TMC3  CA3817108   2.168  -0.329  11.534  0.0000  0.0000  0.0000
 2144TMC3  CA3917109   2.071  -0.413  11.479  0.0000  0.0000  0.0000
 2144TMC3  CA4017110   2.087  -0.449  11.343  0.0000  0.0000  0.0000
 2144TMC3  CA4117111   2.198  -0.413  11.270  0.0000  0.0000  0.0000
 2144TMC3  CA4217112   2.293  -0.337  11.329  0.0000  0.0000  0.0000
 2144TMC3  CB4317113   2.379  -0.185  11.503  0.0000  0.0000  0.0000
 2144TMC3  CB4417114   1.945  -0.438  11.555  0.0000  0.0000  0.0000
 2144TMC3  CB4517115   2.213  -0.455  11.124  0.0000  0.0000  0.0000
 2144TMC3  HA4617116   2.158  -0.284  11.632  0.0000  0.0000  0.0000
 2144TMC3  HA4717117   2.004  -0.499  11.294  0.0000  0.0000  0.0000
 2144TMC3  HA4817118   2.375  -0.303  11.268  0.0000  0.0000  0.0000
 2144TMC3   O4917119   2.335  -0.112  11.587  0.0000  0.0000  0.0000
 2144TMC3   O5017120   1.901  -0.354  11.635  0.0000  0.0000  0.0000
 2144TMC3   O5117121   2.112  -0.445  11.049  0.0000  0.0000  0.0000
 2145TMC3  CA3717122   3.931  -0.280  14.154  0.0000  0.0000  0.0000
 2145TMC3  CA3817123   4.026  -0.359  14.094  0.0000  0.0000  0.0000
 2145TMC3  CA3917124   4.000  -0.491  14.053  0.0000  0.0000  0.0000
 2145TMC3  CA4017125   3.876  -0.549  14.093  0.0000  0.0000  0.0000
 2145TMC3  CA4117126   3.773  -0.465  14.136  0.0000  0.0000  0.0000
 2145TMC3  CA4217127   3.805  -0.334  14.172  0.0000  0.0000  0.0000
 2145TMC3  CB4317128   3.952  -0.133  14.187  0.0000  0.0000  0.0000
 2145TMC3  CB4417129   4.111  -0.582  14.008  0.0000  0.0000  0.0000
 2145TMC3  CB4517130   3.633  -0.509  14.146  0.0000  0.0000  0.0000
 2145TMC3  HA4617131   4.116  -0.302  14.074  0.0000  0.0000  0.0000
 2145TMC3  HA4717132   3.857  -0.656  14.084  0.0000  0.0000  0.0000
 2145TMC3  HA4817133   3.726  -0.275  14.217  0.0000  0.0000  0.0000
 2145TMC3   O4917134   3.862  -0.051  14.173  0.0000  0.0000  0.0000
 2145TMC3   O5017135   4.096  -0.703  13.995  0.0000  0.0000  0.0000
 2145TMC3   O5117136   3.548  -0.440  14.202  0.0000  0.0000  0.0000
 2146TMC2   C2017137   2.439  -1.699  12.594  0.0000  0.0000  0.0000
 2146TMC2  CA2117138   2.309  -1.613  12.580  0.0000  0.0000  0.0000
 2146TMC2  CA2217139   2.319  -1.478  12.553  0.0000  0.0000  0.0000
 2146TMC2  CA2317140   2.213  -1.393  12.545  0.0000  0.0000  0.0000
 2146TMC2  CA2417141   2.085  -1.450  12.549  0.0000  0.0000  0.0000
 2146TMC2  CA2517142   2.072  -1.594  12.565  0.0000  0.0000  0.0000
 2146TMC2  CA2617143   2.186  -1.680  12.571  0.0000  0.0000  0.0000
 2146TMC2  CB2717144   2.227  -1.246  12.526  0.0000  0.0000  0.0000
 2146TMC2  CB2817145   1.933  -1.654  12.589  0.0000  0.0000  0.0000
 2146TMC2  HA2917146   2.419  -1.436  12.540  0.0000  0.0000  0.0000
 2146TMC2  HA3017147   1.999  -1.385  12.557  0.0000  0.0000  0.0000
 2146TMC2  HA3117148   2.186  -1.788  12.578  0.0000  0.0000  0.0000
 2146TMC2  HO3217149   2.344  -1.804  12.701  0.0000  0.0000  0.0000
 2146TMC2   O3317150   2.553  -1.659  12.572  0.0000  0.0000  0.0000
 2146TMC2   O3417151   2.127  -1.174  12.534  0.0000  0.0000  0.0000
 2146TMC2   O3517152   1.913  -1.768  12.627  0.0000  0.0000  0.0000
 2146TMC2  OH3617153   2.423  -1.821  12.647  0.0000  0.0000  0.0000
 2147TMC2   C2017154   4.170  -1.699  12.720  0.0000  0.0000  0.0000
 2147TMC2  CA2117155   4.249  -1.579  12.749  0.0000  0.0000  0.0000
 2147TMC2  CA2217156   4.336  -1.542  12.647  0.0000  0.0000  0.0000
 2147TMC2  CA2317157   4.424  -1.436  12.665  0.0000  0.0000  0.0000
 2147TMC2  CA2417158   4.437  -1.377  12.791  0.0000  0.0000  0.0000
 2147TMC2  CA2517159   4.348  -1.417  12.896  0.0000  0.0000  0.0000
 2147TMC2  CA2617160   4.246  -1.509  12.864  0.0000  0.0000  0.0000
 2147TMC2  CB2717161   4.513  -1.388  12.548  0.0000  0.0000  0.0000
 2147TMC2  CB2817162   4.367  -1.360  13.026  0.0000  0.0000  0.0000
 2147TMC2  HA2917163   4.340  -1.591  12.550  0.0000  0.0000  0.0000
 2147TMC2  HA3017164   4.507  -1.296  12.810  0.0000  0.0000  0.0000
 2147TMC2  HA3117165   4.179  -1.546  12.942  0.0000  0.0000  0.0000
 2147TMC2  HO3217166   4.190  -1.726  12.904  0.0000  0.0000  0.0000
 2147TMC2   O3317167   4.153  -1.742  12.605  0.0000  0.0000  0.0000
 2147TMC2   O3417168   4.511  -1.449  12.442  0.0000  0.0000  0.0000
 2147TMC2   O3517169   4.413  -1.243  13.032  0.0000  0.0000  0.0000
 2147TMC2  OH3617170   4.138  -1.765  12.831  0.0000  0.0000  0.0000
 2148TMC2   C2017171   2.746  -1.548  13.659  0.0000  0.0000  0.0000
 2148TMC2  CA2117172   2.735  -1.408  13.690  0.0000  0.0000  0.0000
 2148TMC2  CA2217173   2.858  -1.337  13.694  0.0000  0.0000  0.0000
 2148TMC2  CA2317174   2.857  -1.196  13.704  0.0000  0.0000  0.0000
 2148TMC2  CA2417175   2.736  -1.128  13.713  0.0000  0.0000  0.0000
 2148TMC2  CA2517176   2.611  -1.200  13.712  0.0000  0.0000  0.0000
 2148TMC2  CA2617177   2.611  -1.343  13.698  0.0000  0.0000  0.0000
 2148TMC2  CB2717178   2.988  -1.113  13.688  0.0000  0.0000  0.0000
 2148TMC2  CB2817179   2.480  -1.127  13.702  0.0000  0.0000  0.0000
 2148TMC2  HA2917180   2.956  -1.383  13.687  0.0000  0.0000  0.0000
 2148TMC2  HA3017181   2.745  -1.020  13.726  0.0000  0.0000  0.0000
 2148TMC2  HA3117182   2.518  -1.398  13.704  0.0000  0.0000  0.0000
 2148TMC2  HO3217183   2.580  -1.564  13.738  0.0000  0.0000  0.0000
 2148TMC2   O3317184   2.854  -1.591  13.616  0.0000  0.0000  0.0000
 2148TMC2   O3417185   2.995  -1.000  13.733  0.0000  0.0000  0.0000
 2148TMC2   O3517186   2.390  -1.198  13.672  0.0000  0.0000  0.0000
 2148TMC2  OH3617187   2.643  -1.622  13.692  0.0000  0.0000  0.0000
 2149TMC3  CA3717188   2.402   1.641  13.001  0.0000  0.0000  0.0000
 2149TMC3  CA3817189   2.364   1.677  13.135  0.0000  0.0000  0.0000
 2149TMC3  CA3917190   2.231   1.708  13.171  0.0000  0.0000  0.0000
 2149TMC3  CA4017191   2.134   1.704  13.068  0.0000  0.0000  0.0000
 2149TMC3  CA4117192   2.165   1.666  12.941  0.0000  0.0000  0.0000
 2149TMC3  CA4217193   2.295   1.625  12.911  0.0000  0.0000  0.0000
 2149TMC3  CB4317194   2.542   1.619  12.962  0.0000  0.0000  0.0000
 2149TMC3  CB4417195   2.190   1.749  13.312  0.0000  0.0000  0.0000
 2149TMC3  CB4517196   2.064   1.644  12.837  0.0000  0.0000  0.0000
 2149TMC3  HA4617197   2.442   1.673  13.210  0.0000  0.0000  0.0000
 2149TMC3  HA4717198   2.031   1.704  13.103  0.0000  0.0000  0.0000
 2149TMC3  HA4817199   2.319   1.591  12.810  0.0000  0.0000  0.0000
 2149TMC3   O4917200   2.568   1.587  12.847  0.0000  0.0000  0.0000
 2149TMC3   O5017201   2.075   1.730  13.347  0.0000  0.0000  0.0000
 2149TMC3   O5117202   1.954   1.607  12.869  0.0000  0.0000  0.0000
 2150TMC2   C2017203   2.452  -1.435  12.941  0.0000  0.0000  0.0000
 2150TMC2  CA2117204   2.324  -1.487  12.993  0.0000  0.0000  0.0000
 2150TMC2  CA2217205   2.204  -1.463  12.924  0.0000  0.0000  0.0000
 2150TMC2  CA2317206   2.082  -1.509  12.978  0.0000  0.0000  0.0000
 2150TMC2  CA2417207   2.084  -1.566  13.100  0.0000  0.0000  0.0000
 2150TMC2  CA2517208   2.203  -1.603  13.167  0.0000  0.0000  0.0000
 2150TMC2  CA2617209   2.324  -1.558  13.110  0.0000  0.0000  0.0000
 2150TMC2  CB2717210   1.944  -1.492  12.913  0.0000  0.0000  0.0000
 2150TMC2  CB2817211   2.194  -1.665  13.306  0.0000  0.0000  0.0000
 2150TMC2  HA2917212   2.200  -1.413  12.827  0.0000  0.0000  0.0000
 2150TMC2  HA3017213   1.989  -1.584  13.148  0.0000  0.0000  0.0000
 2150TMC2  HA3117214   2.413  -1.602  13.154  0.0000  0.0000  0.0000
 2150TMC2  HO3217215   2.511  -1.481  13.103  0.0000  0.0000  0.0000
 2150TMC2   O3317216   2.450  -1.404  12.818  0.0000  0.0000  0.0000
 2150TMC2   O3417217   1.909  -1.387  12.860  0.0000  0.0000  0.0000
 2150TMC2   O3517218   2.087  -1.716  13.333  0.0000  0.0000  0.0000
 2150TMC2  OH3617219   2.556  -1.438  13.028  0.0000  0.0000  0.0000
 2151TMC3  CA3717220   3.417  -1.438  13.836  0.0000  0.0000  0.0000
 2151TMC3  CA3817221   3.311  -1.527  13.857  0.0000  0.0000  0.0000
 2151TMC3  CA3917222   3.193  -1.493  13.921  0.0000  0.0000  0.0000
 2151TMC3  CA4017223   3.181  -1.360  13.956  0.0000  0.0000  0.0000
 2151TMC3  CA4117224   3.288  -1.271  13.935  0.0000  0.0000  0.0000
 2151TMC3  CA4217225   3.405  -1.306  13.870  0.0000  0.0000  0.0000
 2151TMC3  CB4317226   3.544  -1.483  13.762  0.0000  0.0000  0.0000
 2151TMC3  CB4417227   3.075  -1.586  13.926  0.0000  0.0000  0.0000
 2151TMC3  CB4517228   3.268  -1.136  13.994  0.0000  0.0000  0.0000
 2151TMC3  HA4617229   3.326  -1.631  13.832  0.0000  0.0000  0.0000
 2151TMC3  HA4717230   3.089  -1.331  14.007  0.0000  0.0000  0.0000
 2151TMC3  HA4817231   3.490  -1.239  13.865  0.0000  0.0000  0.0000
 2151TMC3   O4917232   3.623  -1.402  13.716  0.0000  0.0000  0.0000
 2151TMC3   O5017233   2.965  -1.536  13.922  0.0000  0.0000  0.0000
 2151TMC3   O5117234   3.155  -1.097  14.014  0.0000  0.0000  0.0000
 2152TMC3  CA3717235   2.733  -2.146  12.535  0.0000  0.0000  0.0000
 2152TMC3  CA3817236   2.804  -2.121  12.417  0.0000  0.0000  0.0000
 2152TMC3  CA3917237   2.740  -2.101  12.291  0.0000  0.0000  0.0000
 2152TMC3  CA4017238   2.603  -2.088  12.293  0.0000  0.0000  0.0000
 2152TMC3  CA4117239   2.526  -2.109  12.407  0.0000  0.0000  0.0000
 2152TMC3  CA4217240   2.593  -2.136  12.530  0.0000  0.0000  0.0000
 2152TMC3  CB4317241   2.798  -2.171  12.668  0.0000  0.0000  0.0000
 2152TMC3  CB4417242   2.811  -2.112  12.156  0.0000  0.0000  0.0000
 2152TMC3  CB4517243   2.375  -2.085  12.400  0.0000  0.0000  0.0000
 2152TMC3  HA4617244   2.913  -2.126  12.416  0.0000  0.0000  0.0000
 2152TMC3  HA4717245   2.558  -2.054  12.200  0.0000  0.0000  0.0000
 2152TMC3  HA4817246   2.533  -2.163  12.616  0.0000  0.0000  0.0000
 2152TMC3   O4917247   2.731  -2.128  12.763  0.0000  0.0000  0.0000
 2152TMC3   O5017248   2.739  -2.117  12.055  0.0000  0.0000  0.0000
 2152TMC3   O5117249   2.296  -2.150  12.464  0.0000  0.0000  0.0000
 2153TMC3  CA3717250   2.657   0.958  11.422  0.0000  0.0000  0.0000
 2153TMC3  CA3817251   2.685   1.093  11.422  0.0000  0.0000  0.0000
 2153TMC3  CA3917252   2.576   1.179  11.419  0.0000  0.0000  0.0000
 2153TMC3  CA4017253   2.442   1.138  11.420  0.0000  0.0000  0.0000
 2153TMC3  CA4117254   2.419   0.999  11.430  0.0000  0.0000  0.0000
 2153TMC3  CA4217255   2.528   0.908  11.429  0.0000  0.0000  0.0000
 2153TMC3  CB4317256   2.777   0.877  11.427  0.0000  0.0000  0.0000
 2153TMC3  CB4417257   2.601   1.328  11.450  0.0000  0.0000  0.0000
 2153TMC3  CB4517258   2.281   0.942  11.437  0.0000  0.0000  0.0000
 2153TMC3  HA4617259   2.787   1.130  11.416  0.0000  0.0000  0.0000
 2153TMC3  HA4717260   2.365   1.214  11.427  0.0000  0.0000  0.0000
 2153TMC3  HA4817261   2.513   0.801  11.416  0.0000  0.0000  0.0000
 2153TMC3   O4917262   2.883   0.903  11.379  0.0000  0.0000  0.0000
 2153TMC3   O5017263   2.508   1.403  11.466  0.0000  0.0000  0.0000
 2153TMC3   O5117264   2.177   1.007  11.449  0.0000  0.0000  0.0000
 2154TMC2   C2017265   3.299   0.544  13.379  0.0000  0.0000  0.0000
 2154TMC2  CA2117266   3.395   0.597  13.281  0.0000  0.0000  0.0000
 2154TMC2  CA2217267   3.468   0.719  13.297  0.0000  0.0000  0.0000
 2154TMC2  CA2317268   3.554   0.766  13.202  0.0000  0.0000  0.0000
 2154TMC2  CA2417269   3.576   0.692  13.081  0.0000  0.0000  0.0000
 2154TMC2  CA2517270   3.506   0.572  13.060  0.0000  0.0000  0.0000
 2154TMC2  CA2617271   3.415   0.526  13.161  0.0000  0.0000  0.0000
 2154TMC2  CB2717272   3.627   0.896  13.216  0.0000  0.0000  0.0000
 2154TMC2  CB2817273   3.540   0.501  12.937  0.0000  0.0000  0.0000
 2154TMC2  HA2917274   3.457   0.773  13.390  0.0000  0.0000  0.0000
 2154TMC2  HA3017275   3.644   0.731  13.006  0.0000  0.0000  0.0000
 2154TMC2  HA3117276   3.363   0.432  13.149  0.0000  0.0000  0.0000
 2154TMC2  HO3217277   3.397   0.633  13.498  0.0000  0.0000  0.0000
 2154TMC2   O3317278   3.203   0.467  13.352  0.0000  0.0000  0.0000
 2154TMC2   O3417279   3.580   0.987  13.287  0.0000  0.0000  0.0000
 2154TMC2   O3517280   3.649   0.504  12.889  0.0000  0.0000  0.0000
 2154TMC2  OH3617281   3.314   0.584  13.503  0.0000  0.0000  0.0000
 2155TMC3  CA3717282   4.643  -2.024  12.491  0.0000  0.0000  0.0000
 2155TMC3  CA3817283   4.575  -2.126  12.558  0.0000  0.0000  0.0000
 2155TMC3  CA3917284   4.505  -2.110  12.672  0.0000  0.0000  0.0000
 2155TMC3  CA4017285   4.509  -1.988  12.739  0.0000  0.0000  0.0000
 2155TMC3  CA4117286   4.581  -1.878  12.684  0.0000  0.0000  0.0000
 2155TMC3  CA4217287   4.648  -1.903  12.560  0.0000  0.0000  0.0000
 2155TMC3  CB4317288   4.699  -2.038  12.356  0.0000  0.0000  0.0000
 2155TMC3  CB4417289   4.434  -2.223  12.733  0.0000  0.0000  0.0000
 2155TMC3  CB4517290   4.600  -1.757  12.760  0.0000  0.0000  0.0000
 2155TMC3  HA4617291   4.581  -2.227  12.518  0.0000  0.0000  0.0000
 2155TMC3  HA4717292   4.449  -1.973  12.828  0.0000  0.0000  0.0000
 2155TMC3  HA4817293   4.718  -1.828  12.524  0.0000  0.0000  0.0000
 2155TMC3   O4917294   4.711  -2.154  12.316  0.0000  0.0000  0.0000
 2155TMC3   O5017295   4.446  -2.250  12.851  0.0000  0.0000  0.0000
 2155TMC3   O5117296   4.523  -1.737  12.847  0.0000  0.0000  0.0000
 2156TMC2   C2017297   4.213   0.677  13.650  0.0000  0.0000  0.0000
 2156TMC2  CA2117298   4.348   0.629  13.605  0.0000  0.0000  0.0000
 2156TMC2  CA2217299   4.357   0.527  13.508  0.0000  0.0000  0.0000
 2156TMC2  CA2317300   4.476   0.497  13.444  0.0000  0.0000  0.0000
 2156TMC2  CA2417301   4.599   0.550  13.488  0.0000  0.0000  0.0000
 2156TMC2  CA2517302   4.591   0.651  13.597  0.0000  0.0000  0.0000
 2156TMC2  CA2617303   4.468   0.684  13.652  0.0000  0.0000  0.0000
 2156TMC2  CB2717304   4.464   0.406  13.323  0.0000  0.0000  0.0000
 2156TMC2  CB2817305   4.713   0.722  13.651  0.0000  0.0000  0.0000
 2156TMC2  HA2917306   4.263   0.484  13.475  0.0000  0.0000  0.0000
 2156TMC2  HA3017307   4.692   0.508  13.450  0.0000  0.0000  0.0000
 2156TMC2  HA3117308   4.457   0.758  13.731  0.0000  0.0000  0.0000
 2156TMC2  HO3217309   4.141   0.507  13.613  0.0000  0.0000  0.0000
 2156TMC2   O3317310   4.197   0.786  13.699  0.0000  0.0000  0.0000
 2156TMC2   O3417311   4.369   0.328  13.317  0.0000  0.0000  0.0000
 2156TMC2   O3517312   4.704   0.804  13.742  0.0000  0.0000  0.0000
 2156TMC2  OH3617313   4.106   0.596  13.632  0.0000  0.0000  0.0000
 2157TMC3  CA3717314   2.415   0.528  13.417  0.0000  0.0000  0.0000
 2157TMC3  CA3817315   2.422   0.431  13.316  0.0000  0.0000  0.0000
 2157TMC3  CA3917316   2.487   0.456  13.196  0.0000  0.0000  0.0000
 2157TMC3  CA4017317   2.514   0.590  13.168  0.0000  0.0000  0.0000
 2157TMC3  CA4117318   2.492   0.690  13.258  0.0000  0.0000  0.0000
 2157TMC3  CA4217319   2.453   0.661  13.387  0.0000  0.0000  0.0000
 2157TMC3  CB4317320   2.374   0.493  13.552  0.0000  0.0000  0.0000
 2157TMC3  CB4417321   2.493   0.360  13.079  0.0000  0.0000  0.0000
 2157TMC3  CB4517322   2.510   0.832  13.213  0.0000  0.0000  0.0000
 2157TMC3  HA4617323   2.376   0.338  13.346  0.0000  0.0000  0.0000
 2157TMC3  HA4717324   2.555   0.612  13.070  0.0000  0.0000  0.0000
 2157TMC3  HA4817325   2.451   0.735  13.467  0.0000  0.0000  0.0000
 2157TMC3   O4917326   2.397   0.576  13.638  0.0000  0.0000  0.0000
 2157TMC3   O5017327   2.507   0.410  12.966  0.0000  0.0000  0.0000
 2157TMC3   O5117328   2.568   0.855  13.108  0.0000  0.0000  0.0000
 2158TMC3  CA3717329   4.237  -1.351  12.301  0.0000  0.0000  0.0000
 2158TMC3  CA3817330   4.244  -1.481  12.243  0.0000  0.0000  0.0000
 2158TMC3  CA3917331   4.154  -1.583  12.275  0.0000  0.0000  0.0000
 2158TMC3  CA4017332   4.064  -1.560  12.376  0.0000  0.0000  0.0000
 2158TMC3  CA4117333   4.059  -1.433  12.437  0.0000  0.0000  0.0000
 2158TMC3  CA4217334   4.144  -1.332  12.406  0.0000  0.0000  0.0000
 2158TMC3  CB4317335   4.341  -1.258  12.257  0.0000  0.0000  0.0000
 2158TMC3  CB4417336   4.156  -1.718  12.205  0.0000  0.0000  0.0000
 2158TMC3  CB4517337   3.950  -1.400  12.535  0.0000  0.0000  0.0000
 2158TMC3  HA4617338   4.318  -1.503  12.166  0.0000  0.0000  0.0000
 2158TMC3  HA4717339   3.999  -1.641  12.408  0.0000  0.0000  0.0000
 2158TMC3  HA4817340   4.145  -1.239  12.462  0.0000  0.0000  0.0000
 2158TMC3   O4917341   4.420  -1.287  12.176  0.0000  0.0000  0.0000
 2158TMC3   O5017342   4.066  -1.794  12.228  0.0000  0.0000  0.0000
 2158TMC3   O5117343   3.977  -1.328  12.629  0.0000  0.0000  0.0000
 2159TMC3  CA3717344   2.520  -0.703  13.260  0.0000  0.0000  0.0000
 2159TMC3  CA3817345   2.638  -0.638  13.287  0.0000  0.0000  0.0000
 2159TMC3  CA3917346   2.737  -0.635  13.187  0.0000  0.0000  0.0000
 2159TMC3  CA4017347   2.723  -0.700  13.070  0.0000  0.0000  0.0000
 2159TMC3  CA4117348   2.606  -0.770  13.045  0.0000  0.0000  0.0000
 2159TMC3  CA4217349   2.501  -0.767  13.141  0.0000  0.0000  0.0000
 2159TMC3  CB4317350   2.418  -0.727  13.364  0.0000  0.0000  0.0000
 2159TMC3  CB4417351   2.866  -0.573  13.224  0.0000  0.0000  0.0000
 2159TMC3  CB4517352   2.585  -0.833  12.915  0.0000  0.0000  0.0000
 2159TMC3  HA4617353   2.660  -0.589  13.381  0.0000  0.0000  0.0000
 2159TMC3  HA4717354   2.800  -0.710  12.995  0.0000  0.0000  0.0000
 2159TMC3  HA4817355   2.416  -0.829  13.116  0.0000  0.0000  0.0000
 2159TMC3   O4917356   2.361  -0.831  13.358  0.0000  0.0000  0.0000
 2159TMC3   O5017357   2.871  -0.503  13.327  0.0000  0.0000  0.0000
 2159TMC3   O5117358   2.686  -0.867  12.852  0.0000  0.0000  0.0000
 2160TMC3  CA3717359   3.802  -0.462  11.991  0.0000  0.0000  0.0000
 2160TMC3  CA3817360   3.769  -0.413  12.114  0.0000  0.0000  0.0000
 2160TMC3  CA3917361   3.742  -0.275  12.130  0.0000  0.0000  0.0000
 2160TMC3  CA4017362   3.744  -0.197  12.019  0.0000  0.0000  0.0000
 2160TMC3  CA4117363   3.773  -0.249  11.892  0.0000  0.0000  0.0000
 2160TMC3  CA4217364   3.804  -0.383  11.877  0.0000  0.0000  0.0000
 2160TMC3  CB4317365   3.823  -0.609  11.983  0.0000  0.0000  0.0000
 2160TMC3  CB4417366   3.695  -0.226  12.262  0.0000  0.0000  0.0000
 2160TMC3  CB4517367   3.781  -0.158  11.775  0.0000  0.0000  0.0000
 2160TMC3  HA4617368   3.763  -0.477  12.201  0.0000  0.0000  0.0000
 2160TMC3  HA4717369   3.703  -0.097  12.031  0.0000  0.0000  0.0000
 2160TMC3  HA4817370   3.830  -0.421  11.779  0.0000  0.0000  0.0000
 2160TMC3   O4917371   3.851  -0.674  12.080  0.0000  0.0000  0.0000
 2160TMC3   O5017372   3.714  -0.298  12.363  0.0000  0.0000  0.0000
 2160TMC3   O5117373   3.759  -0.042  11.793  0.0000  0.0000  0.0000
 2161TMC3  CA3717374   1.317   0.882  13.532  0.0000  0.0000  0.0000
 2161TMC3  CA3817375   1.205   0.954  13.492  0.0000  0.0000  0.0000
 2161TMC3  CA3917376   1.082   0.949  13.560  0.0000  0.0000  0.0000
 2161TMC3  CA4017377   1.089   0.889  13.689  0.0000  0.0000  0.0000
 2161TMC3  CA4117378   1.199   0.819  13.731  0.0000  0.0000  0.0000
 2161TMC3  CA4217379   1.316   0.809  13.653  0.0000  0.0000  0.0000
 2161TMC3  CB4317380   1.444   0.907  13.456  0.0000  0.0000  0.0000
 2161TMC3  CB4417381   0.972   1.037  13.512  0.0000  0.0000  0.0000
 2161TMC3  CB4517382   1.187   0.774  13.876  0.0000  0.0000  0.0000
 2161TMC3  HA4617383   1.204   1.011  13.399  0.0000  0.0000  0.0000
 2161TMC3  HA4717384   1.002   0.900  13.753  0.0000  0.0000  0.0000
 2161TMC3  HA4817385   1.400   0.763  13.703  0.0000  0.0000  0.0000
 2161TMC3   O4917386   1.449   0.947  13.342  0.0000  0.0000  0.0000
 2161TMC3   O5017387   0.998   1.141  13.449  0.0000  0.0000  0.0000
 2161TMC3   O5117388   1.114   0.682  13.909  0.0000  0.0000  0.0000
 2162TMC3  CA3717389   3.446  -0.767  11.874  0.0000  0.0000  0.0000
 2162TMC3  CA3817390   3.475  -0.717  11.742  0.0000  0.0000  0.0000
 2162TMC3  CA3917391   3.490  -0.577  11.730  0.0000  0.0000  0.0000
 2162TMC3  CA4017392   3.461  -0.486  11.832  0.0000  0.0000  0.0000
 2162TMC3  CA4117393   3.435  -0.536  11.961  0.0000  0.0000  0.0000
 2162TMC3  CA4217394   3.434  -0.676  11.984  0.0000  0.0000  0.0000
 2162TMC3  CB4317395   3.424  -0.912  11.910  0.0000  0.0000  0.0000
 2162TMC3  CB4417396   3.530  -0.532  11.591  0.0000  0.0000  0.0000
 2162TMC3  CB4517397   3.419  -0.445  12.075  0.0000  0.0000  0.0000
 2162TMC3  HA4617398   3.508  -0.783  11.663  0.0000  0.0000  0.0000
 2162TMC3  HA4717399   3.454  -0.381  11.807  0.0000  0.0000  0.0000
 2162TMC3  HA4817400   3.413  -0.720  12.082  0.0000  0.0000  0.0000
 2162TMC3   O4917401   3.436  -0.956  12.026  0.0000  0.0000  0.0000
 2162TMC3   O5017402   3.611  -0.441  11.572  0.0000  0.0000  0.0000
 2162TMC3   O5117403   3.412  -0.323  12.056  0.0000  0.0000  0.0000
 2163TMC3  CA3717404   2.044  -0.006  13.549  0.0000  0.0000  0.0000
 2163TMC3  CA3817405   2.034  -0.145  13.525  0.0000  0.0000  0.0000
 2163TMC3  CA3917406   1.926  -0.221  13.573  0.0000  0.0000  0.0000
 2163TMC3  CA4017407   1.841  -0.164  13.666  0.0000  0.0000  0.0000
 2163TMC3  CA4117408   1.847  -0.029  13.695  0.0000  0.0000  0.0000
 2163TMC3  CA4217409   1.943   0.053  13.632  0.0000  0.0000  0.0000
 2163TMC3  CB4317410   2.152   0.073  13.481  0.0000  0.0000  0.0000
 2163TMC3  CB4417411   1.916  -0.366  13.529  0.0000  0.0000  0.0000
 2163TMC3  CB4517412   1.754   0.024  13.798  0.0000  0.0000  0.0000
 2163TMC3  HA4617413   2.102  -0.190  13.453  0.0000  0.0000  0.0000
 2163TMC3  HA4717414   1.768  -0.223  13.721  0.0000  0.0000  0.0000
 2163TMC3  HA4817415   1.963   0.159  13.645  0.0000  0.0000  0.0000
 2163TMC3   O4917416   2.123   0.184  13.436  0.0000  0.0000  0.0000
 2163TMC3   O5017417   2.016  -0.433  13.509  0.0000  0.0000  0.0000
 2163TMC3   O5117418   1.693  -0.053  13.874  0.0000  0.0000  0.0000
 2164TMC3  CA3717419   3.602  -2.296  13.470  0.0000  0.0000  0.0000
 2164TMC3  CA3817420   3.737  -2.281  13.433  0.0000  0.0000  0.0000
 2164TMC3  CA3917421   3.824  -2.213  13.522  0.0000  0.0000  0.0000
 2164TMC3  CA4017422   3.782  -2.146  13.635  0.0000  0.0000  0.0000
 2164TMC3  CA4117423   3.641  -2.153  13.668  0.0000  0.0000  0.0000
 2164TMC3  CA4217424   3.556  -2.223  13.576  0.0000  0.0000  0.0000
 2164TMC3  CB4317425   3.504  -2.358  13.379  0.0000  0.0000  0.0000
 2164TMC3  CB4417426   3.969  -2.203  13.483  0.0000  0.0000  0.0000
 2164TMC3  CB4517427   3.600  -2.061  13.781  0.0000  0.0000  0.0000
 2164TMC3  HA4617428   3.771  -2.310  13.334  0.0000  0.0000  0.0000
 2164TMC3  HA4717429   3.854  -2.095  13.698  0.0000  0.0000  0.0000
 2164TMC3  HA4817430   3.449  -2.218  13.593  0.0000  0.0000  0.0000
 2164TMC3   O4917431   3.395  -2.316  13.378  0.0000  0.0000  0.0000
 2164TMC3   O5017432   4.040  -2.103  13.504  0.0000  0.0000  0.0000
 2164TMC3   O5117433   3.689  -2.014  13.853  0.0000  0.0000  0.0000
 2165TMC3  CA3717434   3.198  -0.081  11.332  0.0000  0.0000  0.0000
 2165TMC3  CA3817435   3.296  -0.173  11.281  0.0000  0.0000  0.0000
 2165TMC3  CA3917436   3.429  -0.134  11.268  0.0000  0.0000  0.0000
 2165TMC3  CA4017437   3.465  -0.004  11.302  0.0000  0.0000  0.0000
 2165TMC3  CA4117438   3.367   0.091  11.335  0.0000  0.0000  0.0000
 2165TMC3  CA4217439   3.235   0.050  11.360  0.0000  0.0000  0.0000
 2165TMC3  CB4317440   3.054  -0.119  11.354  0.0000  0.0000  0.0000
 2165TMC3  CB4417441   3.526  -0.231  11.219  0.0000  0.0000  0.0000
 2165TMC3  CB4517442   3.404   0.232  11.358  0.0000  0.0000  0.0000
 2165TMC3  HA4617443   3.265  -0.273  11.250  0.0000  0.0000  0.0000
 2165TMC3  HA4717444   3.568   0.029  11.287  0.0000  0.0000  0.0000
 2165TMC3  HA4817445   3.166   0.122  11.404  0.0000  0.0000  0.0000
 2165TMC3   O4917446   3.008  -0.223  11.316  0.0000  0.0000  0.0000
 2165TMC3   O5017447   3.504  -0.322  11.138  0.0000  0.0000  0.0000
 2165TMC3   O5117448   3.355   0.299  11.450  0.0000  0.0000  0.0000
 2166TMC1    C117449   3.203   0.522  12.474  0.0000  0.0000  0.0000
 2166TMC1    C217450   3.155   0.055  12.309  0.0000  0.0000  0.0000
 2166TMC1   CA317451   3.140   0.388  12.491  0.0000  0.0000  0.0000
 2166TMC1   CA417452   3.189   0.281  12.408  0.0000  0.0000  0.0000
 2166TMC1   CA517453   3.134   0.156  12.420  0.0000  0.0000  0.0000
 2166TMC1   CA617454   3.047   0.119  12.522  0.0000  0.0000  0.0000
 2166TMC1   CA717455   3.010   0.223  12.611  0.0000  0.0000  0.0000
 2166TMC1   CA817456   3.046   0.353  12.589  0.0000  0.0000  0.0000
 2166TMC1   CB917457   2.908   0.183  12.715  0.0000  0.0000  0.0000
 2166TMC1  HA1017458   2.999   0.429  12.651  0.0000  0.0000  0.0000
 2166TMC1  HA1117459   3.261   0.313  12.333  0.0000  0.0000  0.0000
 2166TMC1  HA1217460   3.013   0.017  12.539  0.0000  0.0000  0.0000
 2166TMC1  HO1317461   3.163   0.544  12.641  0.0000  0.0000  0.0000
 2166TMC1  HO1417462   3.317   0.133  12.266  0.0000  0.0000  0.0000
 2166TMC1   O1517463   3.254   0.555  12.369  0.0000  0.0000  0.0000
 2166TMC1   O1617464   3.083  -0.043  12.297  0.0000  0.0000  0.0000
 2166TMC1   O1717465   2.812   0.261  12.746  0.0000  0.0000  0.0000
 2166TMC1  OH1817466   3.191   0.610  12.575  0.0000  0.0000  0.0000
 2166TMC1  OH1917467   3.250   0.081  12.219  0.0000  0.0000  0.0000
 2167TMC3  CA3717468   0.910  -0.105  13.787  0.0000  0.0000  0.0000
 2167TMC3  CA3817469   0.925  -0.221  13.716  0.0000  0.0000  0.0000
 2167TMC3  CA3917470   1.008  -0.327  13.762  0.0000  0.0000  0.0000
 2167TMC3  CA4017471   1.060  -0.307  13.893  0.0000  0.0000  0.0000
 2167TMC3  CA4117472   1.047  -0.190  13.976  0.0000  0.0000  0.0000
 2167TMC3  CA4217473   0.961  -0.096  13.922  0.0000  0.0000  0.0000
 2167TMC3  CB4317474   0.822   0.001  13.734  0.0000  0.0000  0.0000
 2167TMC3  CB4417475   1.024  -0.453  13.676  0.0000  0.0000  0.0000
 2167TMC3  CB4517476   1.118  -0.180  14.111  0.0000  0.0000  0.0000
 2167TMC3  HA4617477   0.875  -0.235  13.621  0.0000  0.0000  0.0000
 2167TMC3  HA4717478   1.123  -0.390  13.926  0.0000  0.0000  0.0000
 2167TMC3  HA4817479   0.929  -0.013  13.984  0.0000  0.0000  0.0000
 2167TMC3   O4917480   0.771   0.081  13.809  0.0000  0.0000  0.0000
 2167TMC3   O5017481   0.958  -0.480  13.578  0.0000  0.0000  0.0000
 2167TMC3   O5117482   1.060  -0.119  14.199  0.0000  0.0000  0.0000
 2168TMC3  CA3717483   1.237   1.444  13.308  0.0000  0.0000  0.0000
 2168TMC3  CA3817484   1.347   1.414  13.227  0.0000  0.0000  0.0000
 2168TMC3  CA3917485   1.452   1.332  13.271  0.0000  0.0000  0.0000
 2168TMC3  CA4017486   1.455   1.289  13.406  0.0000  0.0000  0.0000
 2168TMC3  CA4117487   1.344   1.313  13.484  0.0000  0.0000  0.0000
 2168TMC3  CA4217488   1.232   1.385  13.430  0.0000  0.0000  0.0000
 2168TMC3  CB4317489   1.125   1.528  13.255  0.0000  0.0000  0.0000
 2168TMC3  CB4417490   1.558   1.301  13.174  0.0000  0.0000  0.0000
 2168TMC3  CB4517491   1.334   1.285  13.629  0.0000  0.0000  0.0000
 2168TMC3  HA4617492   1.351   1.450  13.124  0.0000  0.0000  0.0000
 2168TMC3  HA4717493   1.544   1.234  13.435  0.0000  0.0000  0.0000
 2168TMC3  HA4817494   1.147   1.411  13.493  0.0000  0.0000  0.0000
 2168TMC3   O4917495   1.164   1.619  13.181  0.0000  0.0000  0.0000
 2168TMC3   O5017496   1.589   1.378  13.084  0.0000  0.0000  0.0000
 2168TMC3   O5117497   1.236   1.315  13.694  0.0000  0.0000  0.0000
 2169TMC2   C2017498   1.882  -0.804  12.020  0.0000  0.0000  0.0000
 2169TMC2  CA2117499   1.817  -0.684  12.057  0.0000  0.0000  0.0000
 2169TMC2  CA2217500   1.868  -0.593  12.152  0.0000  0.0000  0.0000
 2169TMC2  CA2317501   1.794  -0.487  12.190  0.0000  0.0000  0.0000
 2169TMC2  CA2417502   1.674  -0.450  12.120  0.0000  0.0000  0.0000
 2169TMC2  CA2517503   1.631  -0.531  12.010  0.0000  0.0000  0.0000
 2169TMC2  CA2617504   1.703  -0.651  11.984  0.0000  0.0000  0.0000
 2169TMC2  CB2717505   1.847  -0.398  12.294  0.0000  0.0000  0.0000
 2169TMC2  CB2817506   1.501  -0.495  11.951  0.0000  0.0000  0.0000
 2169TMC2  HA2917507   1.957  -0.623  12.207  0.0000  0.0000  0.0000
 2169TMC2  HA3017508   1.628  -0.353  12.140  0.0000  0.0000  0.0000
 2169TMC2  HA3117509   1.676  -0.726  11.911  0.0000  0.0000  0.0000
 2169TMC2  HO3217510   1.915  -0.824  12.203  0.0000  0.0000  0.0000
 2169TMC2   O3317511   1.878  -0.863  11.911  0.0000  0.0000  0.0000
 2169TMC2   O3417512   1.955  -0.420  12.346  0.0000  0.0000  0.0000
 2169TMC2   O3517513   1.429  -0.417  12.019  0.0000  0.0000  0.0000
 2169TMC2  OH3617514   1.941  -0.871  12.122  0.0000  0.0000  0.0000
 2170TMC3  CA3717515   3.353   1.101  11.727  0.0000  0.0000  0.0000
 2170TMC3  CA3817516   3.244   1.157  11.660  0.0000  0.0000  0.0000
 2170TMC3  CA3917517   3.204   1.104  11.536  0.0000  0.0000  0.0000
 2170TMC3  CA4017518   3.274   0.994  11.481  0.0000  0.0000  0.0000
 2170TMC3  CA4117519   3.386   0.941  11.550  0.0000  0.0000  0.0000
 2170TMC3  CA4217520   3.427   1.003  11.666  0.0000  0.0000  0.0000
 2170TMC3  CB4317521   3.396   1.141  11.860  0.0000  0.0000  0.0000
 2170TMC3  CB4417522   3.094   1.176  11.461  0.0000  0.0000  0.0000
 2170TMC3  CB4517523   3.478   0.829  11.498  0.0000  0.0000  0.0000
 2170TMC3  HA4617524   3.189   1.236  11.710  0.0000  0.0000  0.0000
 2170TMC3  HA4717525   3.231   0.941  11.397  0.0000  0.0000  0.0000
 2170TMC3  HA4817526   3.517   0.966  11.716  0.0000  0.0000  0.0000
 2170TMC3   O4917527   3.506   1.102  11.901  0.0000  0.0000  0.0000
 2170TMC3   O5017528   3.010   1.248  11.512  0.0000  0.0000  0.0000
 2170TMC3   O5117529   3.585   0.799  11.558  0.0000  0.0000  0.0000
 2171TMC2   C2017530   1.944  -2.347  12.304  0.0000  0.0000  0.0000
 2171TMC2  CA2117531   1.886  -2.243  12.394  0.0000  0.0000  0.0000
 2171TMC2  CA2217532   1.960  -2.204  12.505  0.0000  0.0000  0.0000
 2171TMC2  CA2317533   1.904  -2.121  12.593  0.0000  0.0000  0.0000
 2171TMC2  CA2417534   1.781  -2.064  12.567  0.0000  0.0000  0.0000
 2171TMC2  CA2517535   1.696  -2.106  12.462  0.0000  0.0000  0.0000
 2171TMC2  CA2617536   1.754  -2.199  12.373  0.0000  0.0000  0.0000
 2171TMC2  CB2717537   1.982  -2.072  12.712  0.0000  0.0000  0.0000
 2171TMC2  CB2817538   1.559  -2.041  12.445  0.0000  0.0000  0.0000
 2171TMC2  HA2917539   2.062  -2.240  12.519  0.0000  0.0000  0.0000
 2171TMC2  HA3017540   1.738  -1.990  12.634  0.0000  0.0000  0.0000
 2171TMC2  HA3117541   1.700  -2.235  12.286  0.0000  0.0000  0.0000
 2171TMC2  HO3217542   2.088  -2.351  12.416  0.0000  0.0000  0.0000
 2171TMC2   O3317543   1.882  -2.398  12.211  0.0000  0.0000  0.0000
 2171TMC2   O3417544   1.924  -2.004  12.796  0.0000  0.0000  0.0000
 2171TMC2   O3517545   1.523  -1.974  12.538  0.0000  0.0000  0.0000
 2171TMC2  OH3617546   2.070  -2.386  12.327  0.0000  0.0000  0.0000
 2172TMC1    C117547   3.391  -1.607  12.119  0.0000  0.0000  0.0000
 2172TMC1    C217548   3.506  -1.406  11.679  0.0000  0.0000  0.0000
 2172TMC1   CA317549   3.368  -1.590  11.974  0.0000  0.0000  0.0000
 2172TMC1   CA417550   3.449  -1.514  11.900  0.0000  0.0000  0.0000
 2172TMC1   CA517551   3.421  -1.498  11.767  0.0000  0.0000  0.0000
 2172TMC1   CA617552   3.321  -1.572  11.704  0.0000  0.0000  0.0000
 2172TMC1   CA717553   3.243  -1.653  11.775  0.0000  0.0000  0.0000
 2172TMC1   CA817554   3.262  -1.660  11.909  0.0000  0.0000  0.0000
 2172TMC1   CB917555   3.126  -1.722  11.714  0.0000  0.0000  0.0000
 2172TMC1  HA1017556   3.195  -1.713  11.975  0.0000  0.0000  0.0000
 2172TMC1  HA1117557   3.532  -1.460  11.946  0.0000  0.0000  0.0000
 2172TMC1  HA1217558   3.313  -1.564  11.596  0.0000  0.0000  0.0000
 2172TMC1  HO1317559   3.509  -1.449  12.124  0.0000  0.0000  0.0000
 2172TMC1  HO1417560   3.517  -1.289  11.833  0.0000  0.0000  0.0000
 2172TMC1   O1517561   3.332  -1.688  12.184  0.0000  0.0000  0.0000
 2172TMC1   O1617562   3.509  -1.408  11.558  0.0000  0.0000  0.0000
 2172TMC1   O1717563   3.074  -1.679  11.613  0.0000  0.0000  0.0000
 2172TMC1  OH1817564   3.475  -1.519  12.183  0.0000  0.0000  0.0000
 2172TMC1  OH1917565   3.560  -1.303  11.747  0.0000  0.0000  0.0000
 2173TMC2   C2017566   1.837   0.682  12.530  0.0000  0.0000  0.0000
 2173TMC2  CA2117567   1.717   0.588  12.520  0.0000  0.0000  0.0000
 2173TMC2  CA2217568   1.737   0.451  12.512  0.0000  0.0000  0.0000
 2173TMC2  CA2317569   1.622   0.377  12.492  0.0000  0.0000  0.0000
 2173TMC2  CA2417570   1.491   0.435  12.486  0.0000  0.0000  0.0000
 2173TMC2  CA2517571   1.476   0.573  12.496  0.0000  0.0000  0.0000
 2173TMC2  CA2617572   1.592   0.649  12.503  0.0000  0.0000  0.0000
 2173TMC2  CB2717573   1.633   0.228  12.480  0.0000  0.0000  0.0000
 2173TMC2  CB2817574   1.344   0.632  12.461  0.0000  0.0000  0.0000
 2173TMC2  HA2917575   1.837   0.410  12.508  0.0000  0.0000  0.0000
 2173TMC2  HA3017576   1.409   0.371  12.454  0.0000  0.0000  0.0000
 2173TMC2  HA3117577   1.590   0.758  12.498  0.0000  0.0000  0.0000
 2173TMC2  HO3217578   1.729   0.847  12.558  0.0000  0.0000  0.0000
 2173TMC2   O3317579   1.949   0.632  12.520  0.0000  0.0000  0.0000
 2173TMC2   O3417580   1.547   0.166  12.419  0.0000  0.0000  0.0000
 2173TMC2   O3517581   1.236   0.571  12.471  0.0000  0.0000  0.0000
 2173TMC2  OH3617582   1.822   0.819  12.553  0.0000  0.0000  0.0000
 2174TMC2   C2017583   0.829  -1.406  13.274  0.0000  0.0000  0.0000
 2174TMC2  CA2117584   0.878  -1.276  13.223  0.0000  0.0000  0.0000
 2174TMC2  CA2217585   0.896  -1.176  13.318  0.0000  0.0000  0.0000
 2174TMC2  CA2317586   0.937  -1.047  13.275  0.0000  0.0000  0.0000
 2174TMC2  CA2417587   0.947  -1.021  13.134  0.0000  0.0000  0.0000
 2174TMC2  CA2517588   0.932  -1.125  13.040  0.0000  0.0000  0.0000
 2174TMC2  CA2617589   0.898  -1.250  13.087  0.0000  0.0000  0.0000
 2174TMC2  CB2717590   0.958  -0.938  13.375  0.0000  0.0000  0.0000
 2174TMC2  CB2817591   0.948  -1.094  12.891  0.0000  0.0000  0.0000
 2174TMC2  HA2917592   0.883  -1.194  13.424  0.0000  0.0000  0.0000
 2174TMC2  HA3017593   0.958  -0.916  13.106  0.0000  0.0000  0.0000
 2174TMC2  HA3117594   0.891  -1.334  13.019  0.0000  0.0000  0.0000
 2174TMC2  HO3217595   0.731  -1.431  13.111  0.0000  0.0000  0.0000
 2174TMC2   O3317596   0.850  -1.434  13.387  0.0000  0.0000  0.0000
 2174TMC2   O3417597   0.912  -0.831  13.348  0.0000  0.0000  0.0000
 2174TMC2   O3517598   0.912  -1.173  12.798  0.0000  0.0000  0.0000
 2174TMC2  OH3617599   0.755  -1.484  13.189  0.0000  0.0000  0.0000
 2175TMC3  CA3717600   3.766  -0.463  10.815  0.0000  0.0000  0.0000
 2175TMC3  CA3817601   3.668  -0.561  10.816  0.0000  0.0000  0.0000
 2175TMC3  CA3917602   3.537  -0.528  10.851  0.0000  0.0000  0.0000
 2175TMC3  CA4017603   3.495  -0.395  10.861  0.0000  0.0000  0.0000
 2175TMC3  CA4117604   3.583  -0.295  10.847  0.0000  0.0000  0.0000
 2175TMC3  CA4217605   3.721  -0.327  10.836  0.0000  0.0000  0.0000
 2175TMC3  CB4317606   3.904  -0.491  10.792  0.0000  0.0000  0.0000
 2175TMC3  CB4417607   3.439  -0.629  10.872  0.0000  0.0000  0.0000
 2175TMC3  CB4517608   3.539  -0.153  10.856  0.0000  0.0000  0.0000
 2175TMC3  HA4617609   3.695  -0.665  10.801  0.0000  0.0000  0.0000
 2175TMC3  HA4717610   3.388  -0.386  10.881  0.0000  0.0000  0.0000
 2175TMC3  HA4817611   3.792  -0.245  10.833  0.0000  0.0000  0.0000
 2175TMC3   O4917612   3.986  -0.419  10.740  0.0000  0.0000  0.0000
 2175TMC3   O5017613   3.381  -0.676  10.774  0.0000  0.0000  0.0000
 2175TMC3   O5117614   3.602  -0.066  10.800  0.0000  0.0000  0.0000
 2176TMC2   C2017615   1.784   1.402  13.627  0.0000  0.0000  0.0000
 2176TMC2  CA2117616   1.813   1.453  13.484  0.0000  0.0000  0.0000
 2176TMC2  CA2217617   1.921   1.401  13.422  0.0000  0.0000  0.0000
 2176TMC2  CA2317618   1.945   1.432  13.284  0.0000  0.0000  0.0000
 2176TMC2  CA2417619   1.853   1.505  13.215  0.0000  0.0000  0.0000
 2176TMC2  CA2517620   1.736   1.558  13.284  0.0000  0.0000  0.0000
 2176TMC2  CA2617621   1.720   1.526  13.413  0.0000  0.0000  0.0000
 2176TMC2  CB2717622   2.067   1.381  13.211  0.0000  0.0000  0.0000
 2176TMC2  CB2817623   1.639   1.650  13.215  0.0000  0.0000  0.0000
 2176TMC2  HA2917624   1.982   1.326  13.470  0.0000  0.0000  0.0000
 2176TMC2  HA3017625   1.862   1.532  13.110  0.0000  0.0000  0.0000
 2176TMC2  HA3117626   1.630   1.564  13.461  0.0000  0.0000  0.0000
 2176TMC2  HO3217627   1.634   1.528  13.643  0.0000  0.0000  0.0000
 2176TMC2   O3317628   1.847   1.315  13.687  0.0000  0.0000  0.0000
 2176TMC2   O3417629   2.091   1.414  13.098  0.0000  0.0000  0.0000
 2176TMC2   O3517630   1.550   1.702  13.286  0.0000  0.0000  0.0000
 2176TMC2  OH3617631   1.674   1.454  13.692  0.0000  0.0000  0.0000
 2177TMC3  CA3717632   4.423  -0.411  12.216  0.0000  0.0000  0.0000
 2177TMC3  CA3817633   4.458  -0.314  12.117  0.0000  0.0000  0.0000
 2177TMC3  CA3917634   4.395  -0.186  12.136  0.0000  0.0000  0.0000
 2177TMC3  CA4017635   4.305  -0.161  12.242  0.0000  0.0000  0.0000
 2177TMC3  CA4117636   4.292  -0.251  12.342  0.0000  0.0000  0.0000
 2177TMC3  CA4217637   4.344  -0.381  12.328  0.0000  0.0000  0.0000
 2177TMC3  CB4317638   4.481  -0.547  12.198  0.0000  0.0000  0.0000
 2177TMC3  CB4417639   4.412  -0.073  12.042  0.0000  0.0000  0.0000
 2177TMC3  CB4517640   4.195  -0.221  12.447  0.0000  0.0000  0.0000
 2177TMC3  HA4617641   4.527  -0.330  12.035  0.0000  0.0000  0.0000
 2177TMC3  HA4717642   4.267  -0.061  12.260  0.0000  0.0000  0.0000
 2177TMC3  HA4817643   4.311  -0.457  12.398  0.0000  0.0000  0.0000
 2177TMC3   O4917644   4.573  -0.562  12.118  0.0000  0.0000  0.0000
 2177TMC3   O5017645   4.324   0.003  12.024  0.0000  0.0000  0.0000
 2177TMC3   O5117646   4.084  -0.267  12.450  0.0000  0.0000  0.0000
 2178TMC3  CA3717647   3.082   1.348  12.809  0.0000  0.0000  0.0000
 2178TMC3  CA3817648   2.944   1.342  12.823  0.0000  0.0000  0.0000
 2178TMC3  CA3917649   2.864   1.299  12.718  0.0000  0.0000  0.0000
 2178TMC3  CA4017650   2.927   1.269  12.596  0.0000  0.0000  0.0000
 2178TMC3  CA4117651   3.066   1.288  12.577  0.0000  0.0000  0.0000
 2178TMC3  CA4217652   3.143   1.326  12.684  0.0000  0.0000  0.0000
 2178TMC3  CB4317653   3.162   1.371  12.933  0.0000  0.0000  0.0000
 2178TMC3  CB4417654   2.718   1.296  12.736  0.0000  0.0000  0.0000
 2178TMC3  CB4517655   3.117   1.282  12.439  0.0000  0.0000  0.0000
 2178TMC3  HA4617656   2.906   1.357  12.923  0.0000  0.0000  0.0000
 2178TMC3  HA4717657   2.868   1.231  12.513  0.0000  0.0000  0.0000
 2178TMC3  HA4817658   3.250   1.346  12.683  0.0000  0.0000  0.0000
 2178TMC3   O4917659   3.127   1.318  13.035  0.0000  0.0000  0.0000
 2178TMC3   O5017660   2.668   1.258  12.843  0.0000  0.0000  0.0000
 2178TMC3   O5117661   3.053   1.225  12.347  0.0000  0.0000  0.0000
 2179TMC3  CA3717662   1.548   0.775  11.961  0.0000  0.0000  0.0000
 2179TMC3  CA3817663   1.520   0.909  11.988  0.0000  0.0000  0.0000
 2179TMC3  CA3917664   1.389   0.951  12.003  0.0000  0.0000  0.0000
 2179TMC3  CA4017665   1.283   0.865  11.996  0.0000  0.0000  0.0000
 2179TMC3  CA4117666   1.306   0.728  11.993  0.0000  0.0000  0.0000
 2179TMC3  CA4217667   1.443   0.685  11.975  0.0000  0.0000  0.0000
 2179TMC3  CB4317668   1.684   0.730  11.910  0.0000  0.0000  0.0000
 2179TMC3  CB4417669   1.357   1.093  12.029  0.0000  0.0000  0.0000
 2179TMC3  CB4517670   1.188   0.640  12.019  0.0000  0.0000  0.0000
 2179TMC3  HA4617671   1.595   0.988  11.983  0.0000  0.0000  0.0000
 2179TMC3  HA4717672   1.181   0.895  12.016  0.0000  0.0000  0.0000
 2179TMC3  HA4817673   1.460   0.578  11.960  0.0000  0.0000  0.0000
 2179TMC3   O4917674   1.704   0.611  11.904  0.0000  0.0000  0.0000
 2179TMC3   O5017675   1.404   1.187  11.959  0.0000  0.0000  0.0000
 2179TMC3   O5117676   1.074   0.682  12.024  0.0000  0.0000  0.0000
 2180TMC3  CA3717677   4.390  -0.733  11.456  0.0000  0.0000  0.0000
 2180TMC3  CA3817678   4.292  -0.630  11.439  0.0000  0.0000  0.0000
 2180TMC3  CA3917679   4.160  -0.650  11.478  0.0000  0.0000  0.0000
 2180TMC3  CA4017680   4.121  -0.773  11.522  0.0000  0.0000  0.0000
 2180TMC3  CA4117681   4.208  -0.880  11.542  0.0000  0.0000  0.0000
 2180TMC3  CA4217682   4.349  -0.849  11.525  0.0000  0.0000  0.0000
 2180TMC3  CB4317683   4.537  -0.698  11.427  0.0000  0.0000  0.0000
 2180TMC3  CB4417684   4.050  -0.548  11.465  0.0000  0.0000  0.0000
 2180TMC3  CB4517685   4.169  -1.012  11.581  0.0000  0.0000  0.0000
 2180TMC3  HA4617686   4.327  -0.536  11.399  0.0000  0.0000  0.0000
 2180TMC3  HA4717687   4.018  -0.781  11.554  0.0000  0.0000  0.0000
 2180TMC3  HA4817688   4.426  -0.923  11.542  0.0000  0.0000  0.0000
 2180TMC3   O4917689   4.581  -0.590  11.458  0.0000  0.0000  0.0000
 2180TMC3   O5017690   3.962  -0.534  11.549  0.0000  0.0000  0.0000
 2180TMC3   O5117691   4.049  -1.040  11.578  0.0000  0.0000  0.0000
 2181TMC3  CA3717692   2.903  -1.580  11.316  0.0000  0.0000  0.0000
 2181TMC3  CA3817693   2.991  -1.491  11.377  0.0000  0.0000  0.0000
 2181TMC3  CA3917694   2.954  -1.357  11.392  0.0000  0.0000  0.0000
 2181TMC3  CA4017695   2.829  -1.313  11.345  0.0000  0.0000  0.0000
 2181TMC3  CA4117696   2.733  -1.405  11.300  0.0000  0.0000  0.0000
 2181TMC3  CA4217697   2.775  -1.536  11.280  0.0000  0.0000  0.0000
 2181TMC3  CB4317698   2.931  -1.728  11.297  0.0000  0.0000  0.0000
 2181TMC3  CB4417699   3.033  -1.261  11.481  0.0000  0.0000  0.0000
 2181TMC3  CB4517700   2.594  -1.364  11.258  0.0000  0.0000  0.0000
 2181TMC3  HA4617701   3.086  -1.529  11.415  0.0000  0.0000  0.0000
 2181TMC3  HA4717702   2.805  -1.207  11.343  0.0000  0.0000  0.0000
 2181TMC3  HA4817703   2.707  -1.611  11.240  0.0000  0.0000  0.0000
 2181TMC3   O4917704   2.838  -1.805  11.288  0.0000  0.0000  0.0000
 2181TMC3   O5017705   3.057  -1.146  11.442  0.0000  0.0000  0.0000
 2181TMC3   O5117706   2.514  -1.456  11.244  0.0000  0.0000  0.0000
 2182TMC1    C117707   3.269  -1.180  11.082  0.0000  0.0000  0.0000
 2182TMC1    C217708   3.743  -1.040  10.967  0.0000  0.0000  0.0000
 2182TMC1   CA317709   3.397  -1.109  11.123  0.0000  0.0000  0.0000
 2182TMC1   CA417710   3.510  -1.110  11.031  0.0000  0.0000  0.0000
 2182TMC1   CA517711   3.634  -1.056  11.064  0.0000  0.0000  0.0000
 2182TMC1   CA617712   3.655  -1.008  11.192  0.0000  0.0000  0.0000
 2182TMC1   CA717713   3.551  -1.012  11.292  0.0000  0.0000  0.0000
 2182TMC1   CA817714   3.419  -1.055  11.253  0.0000  0.0000  0.0000
 2182TMC1   CB917715   3.570  -0.976  11.433  0.0000  0.0000  0.0000
 2182TMC1  HA1017716   3.339  -1.061  11.326  0.0000  0.0000  0.0000
 2182TMC1  HA1117717   3.502  -1.158  10.934  0.0000  0.0000  0.0000
 2182TMC1  HA1217718   3.760  -0.985  11.210  0.0000  0.0000  0.0000
 2182TMC1  HO1317719   3.174  -1.134  11.254  0.0000  0.0000  0.0000
 2182TMC1  HO1417720   3.668  -1.186  10.884  0.0000  0.0000  0.0000
 2182TMC1   O1517721   3.259  -1.232  10.973  0.0000  0.0000  0.0000
 2182TMC1   O1617722   3.828  -0.953  10.985  0.0000  0.0000  0.0000
 2182TMC1   O1717723   3.474  -0.954  11.497  0.0000  0.0000  0.0000
 2182TMC1  OH1817724   3.158  -1.159  11.162  0.0000  0.0000  0.0000
 2182TMC1  OH1917725   3.747  -1.132  10.868  0.0000  0.0000  0.0000
 2183TMC3  CA3717726   2.307   1.224  12.036  0.0000  0.0000  0.0000
 2183TMC3  CA3817727   2.434   1.179  12.004  0.0000  0.0000  0.0000
 2183TMC3  CA3917728   2.538   1.266  12.023  0.0000  0.0000  0.0000
 2183TMC3  CA4017729   2.523   1.393  12.079  0.0000  0.0000  0.0000
 2183TMC3  CA4117730   2.393   1.433  12.116  0.0000  0.0000  0.0000
 2183TMC3  CA4217731   2.290   1.349  12.098  0.0000  0.0000  0.0000
 2183TMC3  CB4317732   2.191   1.138  12.021  0.0000  0.0000  0.0000
 2183TMC3  CB4417733   2.677   1.202  12.001  0.0000  0.0000  0.0000
 2183TMC3  CB4517734   2.364   1.571  12.160  0.0000  0.0000  0.0000
 2183TMC3  HA4617735   2.445   1.076  11.971  0.0000  0.0000  0.0000
 2183TMC3  HA4717736   2.606   1.463  12.078  0.0000  0.0000  0.0000
 2183TMC3  HA4817737   2.193   1.387  12.128  0.0000  0.0000  0.0000
 2183TMC3   O4917738   2.098   1.143  12.090  0.0000  0.0000  0.0000
 2183TMC3   O5017739   2.750   1.260  11.922  0.0000  0.0000  0.0000
 2183TMC3   O5117740   2.254   1.614  12.130  0.0000  0.0000  0.0000
 2184TMC3  CA3717741   3.319   1.435  13.515  0.0000  0.0000  0.0000
 2184TMC3  CA3817742   3.245   1.493  13.411  0.0000  0.0000  0.0000
 2184TMC3  CA3917743   3.285   1.618  13.354  0.0000  0.0000  0.0000
 2184TMC3  CA4017744   3.398   1.688  13.406  0.0000  0.0000  0.0000
 2184TMC3  CA4117745   3.476   1.627  13.504  0.0000  0.0000  0.0000
 2184TMC3  CA4217746   3.436   1.501  13.557  0.0000  0.0000  0.0000
 2184TMC3  CB4317747   3.265   1.313  13.579  0.0000  0.0000  0.0000
 2184TMC3  CB4417748   3.206   1.691  13.255  0.0000  0.0000  0.0000
 2184TMC3  CB4517749   3.597   1.698  13.549  0.0000  0.0000  0.0000
 2184TMC3  HA4617750   3.156   1.437  13.385  0.0000  0.0000  0.0000
 2184TMC3  HA4717751   3.425   1.787  13.373  0.0000  0.0000  0.0000
 2184TMC3  HA4817752   3.487   1.463  13.644  0.0000  0.0000  0.0000
 2184TMC3   O4917753   3.151   1.278  13.561  0.0000  0.0000  0.0000
 2184TMC3   O5017754   3.220   1.809  13.233  0.0000  0.0000  0.0000
 2184TMC3   O5117755   3.641   1.796  13.486  0.0000  0.0000  0.0000
 2185TMC1    C117756   3.605   0.854  12.737  0.0000  0.0000  0.0000
 2185TMC1    C217757   3.865   0.725  12.324  0.0000  0.0000  0.0000
 2185TMC1   CA317758   3.621   0.767  12.617  0.0000  0.0000  0.0000
 2185TMC1   CA417759   3.728   0.792  12.527  0.0000  0.0000  0.0000
 2185TMC1   CA517760   3.763   0.699  12.432  0.0000  0.0000  0.0000
 2185TMC1   CA617761   3.697   0.577  12.429  0.0000  0.0000  0.0000
 2185TMC1   CA717762   3.595   0.549  12.522  0.0000  0.0000  0.0000
 2185TMC1   CA817763   3.549   0.646  12.607  0.0000  0.0000  0.0000
 2185TMC1   CB917764   3.538   0.411  12.529  0.0000  0.0000  0.0000
 2185TMC1  HA1017765   3.477   0.616  12.682  0.0000  0.0000  0.0000
 2185TMC1  HA1117766   3.789   0.881  12.542  0.0000  0.0000  0.0000
 2185TMC1  HA1217767   3.721   0.499  12.358  0.0000  0.0000  0.0000
 2185TMC1  HO1317768   3.436   0.783  12.750  0.0000  0.0000  0.0000
 2185TMC1  HO1417769   3.820   0.908  12.328  0.0000  0.0000  0.0000
 2185TMC1   O1517770   3.694   0.929  12.769  0.0000  0.0000  0.0000
 2185TMC1   O1617771   3.915   0.628  12.269  0.0000  0.0000  0.0000
 2185TMC1   O1717772   3.425   0.400  12.586  0.0000  0.0000  0.0000
 2185TMC1  OH1817773   3.493   0.840  12.803  0.0000  0.0000  0.0000
 2185TMC1  OH1917774   3.889   0.854  12.285  0.0000  0.0000  0.0000
 2186TMC2   C2017775   0.680   2.055  12.747  0.0000  0.0000  0.0000
 2186TMC2  CA2117776   0.775   1.947  12.774  0.0000  0.0000  0.0000
 2186TMC2  CA2217777   0.734   1.810  12.797  0.0000  0.0000  0.0000
 2186TMC2  CA2317778   0.819   1.705  12.835  0.0000  0.0000  0.0000
 2186TMC2  CA2417779   0.950   1.734  12.847  0.0000  0.0000  0.0000
 2186TMC2  CA2517780   0.994   1.865  12.818  0.0000  0.0000  0.0000
 2186TMC2  CA2617781   0.909   1.971  12.788  0.0000  0.0000  0.0000
 2186TMC2  CB2717782   0.762   1.564  12.866  0.0000  0.0000  0.0000
 2186TMC2  CB2817783   1.139   1.903  12.832  0.0000  0.0000  0.0000
 2186TMC2  HA2917784   0.629   1.784  12.788  0.0000  0.0000  0.0000
 2186TMC2  HA3017785   1.024   1.658  12.871  0.0000  0.0000  0.0000
 2186TMC2  HA3117786   0.948   2.072  12.780  0.0000  0.0000  0.0000
 2186TMC2  HO3217787   0.557   1.962  12.848  0.0000  0.0000  0.0000
 2186TMC2   O3317788   0.712   2.154  12.677  0.0000  0.0000  0.0000
 2186TMC2   O3417789   0.839   1.471  12.860  0.0000  0.0000  0.0000
 2186TMC2   O3517790   1.174   2.019  12.821  0.0000  0.0000  0.0000
 2186TMC2  OH3617791   0.552   2.037  12.786  0.0000  0.0000  0.0000
 2187TMC2   C2017792   1.756   2.511  13.772  0.0000  0.0000  0.0000
 2187TMC2  CA2117793   1.727   2.364  13.797  0.0000  0.0000  0.0000
 2187TMC2  CA2217794   1.822   2.267  13.777  0.0000  0.0000  0.0000
 2187TMC2  CA2317795   1.785   2.131  13.798  0.0000  0.0000  0.0000
 2187TMC2  CA2417796   1.657   2.091  13.835  0.0000  0.0000  0.0000
 2187TMC2  CA2517797   1.563   2.193  13.859  0.0000  0.0000  0.0000
 2187TMC2  CA2617798   1.601   2.327  13.844  0.0000  0.0000  0.0000
 2187TMC2  CB2717799   1.895   2.023  13.779  0.0000  0.0000  0.0000
 2187TMC2  CB2817800   1.420   2.164  13.880  0.0000  0.0000  0.0000
 2187TMC2  HA2917801   1.920   2.293  13.738  0.0000  0.0000  0.0000
 2187TMC2  HA3017802   1.629   1.986  13.832  0.0000  0.0000  0.0000
 2187TMC2  HA3117803   1.529   2.408  13.849  0.0000  0.0000  0.0000
 2187TMC2  HO3217804   1.640   2.547  13.909  0.0000  0.0000  0.0000
 2187TMC2   O3317805   1.835   2.552  13.687  0.0000  0.0000  0.0000
 2187TMC2   O3417806   1.866   1.909  13.809  0.0000  0.0000  0.0000
 2187TMC2   O3517807   1.340   2.255  13.882  0.0000  0.0000  0.0000
 2187TMC2  OH3617808   1.678   2.598  13.836  0.0000  0.0000  0.0000
 2188TMC2   C2017809   3.262   0.204  13.567  0.0000  0.0000  0.0000
 2188TMC2  CA2117810   3.333   0.161  13.439  0.0000  0.0000  0.0000
 2188TMC2  CA2217811   3.451   0.228  13.395  0.0000  0.0000  0.0000
 2188TMC2  CA2317812   3.523   0.188  13.284  0.0000  0.0000  0.0000
 2188TMC2  CA2417813   3.450   0.105  13.194  0.0000  0.0000  0.0000
 2188TMC2  CA2517814   3.339   0.037  13.230  0.0000  0.0000  0.0000
 2188TMC2  CA2617815   3.283   0.061  13.354  0.0000  0.0000  0.0000
 2188TMC2  CB2717816   3.655   0.250  13.241  0.0000  0.0000  0.0000
 2188TMC2  CB2817817   3.302  -0.073  13.137  0.0000  0.0000  0.0000
 2188TMC2  HA2917818   3.500   0.295  13.465  0.0000  0.0000  0.0000
 2188TMC2  HA3017819   3.503   0.064  13.108  0.0000  0.0000  0.0000
 2188TMC2  HA3117820   3.190   0.014  13.385  0.0000  0.0000  0.0000
 2188TMC2  HO3217821   3.104   0.153  13.492  0.0000  0.0000  0.0000
 2188TMC2   O3317822   3.325   0.254  13.656  0.0000  0.0000  0.0000
 2188TMC2   O3417823   3.702   0.216  13.134  0.0000  0.0000  0.0000
 2188TMC2   O3517824   3.319  -0.062  13.019  0.0000  0.0000  0.0000
 2188TMC2  OH3617825   3.136   0.182  13.579  0.0000  0.0000  0.0000
 2189TMC3  CA3717826   1.883  -1.468  11.632  0.0000  0.0000  0.0000
 2189TMC3  CA3817827   1.881  -1.584  11.715  0.0000  0.0000  0.0000
 2189TMC3  CA3917828   1.976  -1.593  11.822  0.0000  0.0000  0.0000
 2189TMC3  CA4017829   2.072  -1.494  11.848  0.0000  0.0000  0.0000
 2189TMC3  CA4117830   2.074  -1.380  11.762  0.0000  0.0000  0.0000
 2189TMC3  CA4217831   1.972  -1.368  11.663  0.0000  0.0000  0.0000
 2189TMC3  CB4317832   1.785  -1.461  11.514  0.0000  0.0000  0.0000
 2189TMC3  CB4417833   1.979  -1.718  11.908  0.0000  0.0000  0.0000
 2189TMC3  CB4517834   2.179  -1.267  11.788  0.0000  0.0000  0.0000
 2189TMC3  HA4617835   1.810  -1.663  11.695  0.0000  0.0000  0.0000
 2189TMC3  HA4717836   2.148  -1.498  11.926  0.0000  0.0000  0.0000
 2189TMC3  HA4817837   1.967  -1.276  11.606  0.0000  0.0000  0.0000
 2189TMC3   O4917838   1.673  -1.503  11.517  0.0000  0.0000  0.0000
 2189TMC3   O5017839   1.898  -1.807  11.895  0.0000  0.0000  0.0000
 2189TMC3   O5117840   2.272  -1.281  11.865  0.0000  0.0000  0.0000
 2190TMC3  CA3717841   1.969   0.544  12.164  0.0000  0.0000  0.0000
 2190TMC3  CA3817842   1.874   0.644  12.178  0.0000  0.0000  0.0000
 2190TMC3  CA3917843   1.915   0.774  12.195  0.0000  0.0000  0.0000
 2190TMC3  CA4017844   2.051   0.799  12.197  0.0000  0.0000  0.0000
 2190TMC3  CA4117845   2.149   0.695  12.169  0.0000  0.0000  0.0000
 2190TMC3  CA4217846   2.104   0.569  12.144  0.0000  0.0000  0.0000
 2190TMC3  CB4317847   1.919   0.405  12.157  0.0000  0.0000  0.0000
 2190TMC3  CB4417848   1.808   0.884  12.209  0.0000  0.0000  0.0000
 2190TMC3  CB4517849   2.294   0.726  12.168  0.0000  0.0000  0.0000
 2190TMC3  HA4617850   1.769   0.629  12.200  0.0000  0.0000  0.0000
 2190TMC3  HA4717851   2.083   0.900  12.217  0.0000  0.0000  0.0000
 2190TMC3  HA4817852   2.167   0.483  12.122  0.0000  0.0000  0.0000
 2190TMC3   O4917853   1.804   0.377  12.185  0.0000  0.0000  0.0000
 2190TMC3   O5017854   1.707   0.848  12.258  0.0000  0.0000  0.0000
 2190TMC3   O5117855   2.377   0.659  12.107  0.0000  0.0000  0.0000
 2191TMC3  CA3717856   0.691  -1.996  12.768  0.0000  0.0000  0.0000
 2191TMC3  CA3817857   0.747  -1.907  12.858  0.0000  0.0000  0.0000
 2191TMC3  CA3917858   0.867  -1.836  12.824  0.0000  0.0000  0.0000
 2191TMC3  CA4017859   0.939  -1.873  12.708  0.0000  0.0000  0.0000
 2191TMC3  CA4117860   0.873  -1.957  12.617  0.0000  0.0000  0.0000
 2191TMC3  CA4217861   0.751  -2.024  12.644  0.0000  0.0000  0.0000
 2191TMC3  CB4317862   0.567  -2.067  12.806  0.0000  0.0000  0.0000
 2191TMC3  CB4417863   0.905  -1.729  12.921  0.0000  0.0000  0.0000
 2191TMC3  CB4517864   0.944  -2.000  12.490  0.0000  0.0000  0.0000
 2191TMC3  HA4617865   0.706  -1.892  12.958  0.0000  0.0000  0.0000
 2191TMC3  HA4717866   1.034  -1.825  12.686  0.0000  0.0000  0.0000
 2191TMC3  HA4817867   0.714  -2.102  12.577  0.0000  0.0000  0.0000
 2191TMC3   O4917868   0.503  -2.014  12.893  0.0000  0.0000  0.0000
 2191TMC3   O5017869   0.817  -1.661  12.972  0.0000  0.0000  0.0000
 2191TMC3   O5117870   0.902  -2.098  12.428  0.0000  0.0000  0.0000
 2192TMC3  CA3717871   1.128  -0.111  12.665  0.0000  0.0000  0.0000
 2192TMC3  CA3817872   1.044  -0.076  12.564  0.0000  0.0000  0.0000
 2192TMC3  CA3917873   0.953  -0.172  12.499  0.0000  0.0000  0.0000
 2192TMC3  CA4017874   0.978  -0.304  12.539  0.0000  0.0000  0.0000
 2192TMC3  CA4117875   1.079  -0.339  12.633  0.0000  0.0000  0.0000
 2192TMC3  CA4217876   1.154  -0.243  12.695  0.0000  0.0000  0.0000
 2192TMC3  CB4317877   1.194  -0.002  12.743  0.0000  0.0000  0.0000
 2192TMC3  CB4417878   0.855  -0.127  12.394  0.0000  0.0000  0.0000
 2192TMC3  CB4517879   1.098  -0.481  12.675  0.0000  0.0000  0.0000
 2192TMC3  HA4617880   1.030   0.028  12.537  0.0000  0.0000  0.0000
 2192TMC3  HA4717881   0.912  -0.380  12.499  0.0000  0.0000  0.0000
 2192TMC3  HA4817882   1.230  -0.275  12.766  0.0000  0.0000  0.0000
 2192TMC3   O4917883   1.225  -0.024  12.860  0.0000  0.0000  0.0000
 2192TMC3   O5017884   0.815  -0.012  12.391  0.0000  0.0000  0.0000
 2192TMC3   O5117885   1.141  -0.499  12.786  0.0000  0.0000  0.0000
 2193TMC2   C2017886   3.091   2.367  11.369  0.0000  0.0000  0.0000
 2193TMC2  CA2117887   3.002   2.278  11.439  0.0000  0.0000  0.0000
 2193TMC2  CA2217888   2.885   2.333  11.495  0.0000  0.0000  0.0000
 2193TMC2  CA2317889   2.802   2.254  11.582  0.0000  0.0000  0.0000
 2193TMC2  CA2417890   2.829   2.119  11.594  0.0000  0.0000  0.0000
 2193TMC2  CA2517891   2.940   2.059  11.525  0.0000  0.0000  0.0000
 2193TMC2  CA2617892   3.028   2.139  11.452  0.0000  0.0000  0.0000
 2193TMC2  CB2717893   2.660   2.309  11.629  0.0000  0.0000  0.0000
 2193TMC2  CB2817894   2.967   1.915  11.545  0.0000  0.0000  0.0000
 2193TMC2  HA2917895   2.871   2.440  11.488  0.0000  0.0000  0.0000
 2193TMC2  HA3017896   2.757   2.063  11.653  0.0000  0.0000  0.0000
 2193TMC2  HA3117897   3.109   2.090  11.400  0.0000  0.0000  0.0000
 2193TMC2  HO3217898   3.232   2.225  11.355  0.0000  0.0000  0.0000
 2193TMC2   O3317899   3.066   2.483  11.343  0.0000  0.0000  0.0000
 2193TMC2   O3417900   2.605   2.281  11.520  0.0000  0.0000  0.0000
 2193TMC2   O3517901   3.082   1.870  11.555  0.0000  0.0000  0.0000
 2193TMC2  OH3617902   3.201   2.309  11.317  0.0000  0.0000  0.0000
 2194TMC3  CA3717903   2.967   0.620  13.627  0.0000  0.0000  0.0000
 2194TMC3  CA3817904   2.960   0.639  13.488  0.0000  0.0000  0.0000
 2194TMC3  CA3917905   2.885   0.550  13.410  0.0000  0.0000  0.0000
 2194TMC3  CA4017906   2.802   0.456  13.469  0.0000  0.0000  0.0000
 2194TMC3  CA4117907   2.814   0.438  13.605  0.0000  0.0000  0.0000
 2194TMC3  CA4217908   2.893   0.518  13.685  0.0000  0.0000  0.0000
 2194TMC3  CB4317909   3.068   0.695  13.704  0.0000  0.0000  0.0000
 2194TMC3  CB4417910   2.889   0.550  13.259  0.0000  0.0000  0.0000
 2194TMC3  CB4517911   2.747   0.322  13.674  0.0000  0.0000  0.0000
 2194TMC3  HA4617912   3.025   0.714  13.445  0.0000  0.0000  0.0000
 2194TMC3  HA4717913   2.753   0.380  13.409  0.0000  0.0000  0.0000
 2194TMC3  HA4817914   2.910   0.507  13.792  0.0000  0.0000  0.0000
 2194TMC3   O4917915   3.094   0.660  13.817  0.0000  0.0000  0.0000
 2194TMC3   O5017916   2.839   0.456  13.200  0.0000  0.0000  0.0000
 2194TMC3   O5117917   2.625   0.308  13.671  0.0000  0.0000  0.0000
 2195TMC2   C2017918   0.480   2.339  13.168  0.0000  0.0000  0.0000
 2195TMC2  CA2117919   0.628   2.311  13.148  0.0000  0.0000  0.0000
 2195TMC2  CA2217920   0.663   2.177  13.159  0.0000  0.0000  0.0000
 2195TMC2  CA2317921   0.794   2.133  13.163  0.0000  0.0000  0.0000
 2195TMC2  CA2417922   0.885   2.232  13.142  0.0000  0.0000  0.0000
 2195TMC2  CA2517923   0.855   2.365  13.123  0.0000  0.0000  0.0000
 2195TMC2  CA2617924   0.725   2.409  13.135  0.0000  0.0000  0.0000
 2195TMC2  CB2717925   0.828   1.988  13.161  0.0000  0.0000  0.0000
 2195TMC2  CB2817926   0.962   2.469  13.098  0.0000  0.0000  0.0000
 2195TMC2  HA2917927   0.578   2.110  13.166  0.0000  0.0000  0.0000
 2195TMC2  HA3017928   0.987   2.195  13.129  0.0000  0.0000  0.0000
 2195TMC2  HA3117929   0.690   2.512  13.140  0.0000  0.0000  0.0000
 2195TMC2  HO3217930   0.507   2.523  13.113  0.0000  0.0000  0.0000
 2195TMC2   O3317931   0.398   2.260  13.215  0.0000  0.0000  0.0000
 2195TMC2   O3417932   0.939   1.949  13.115  0.0000  0.0000  0.0000
 2195TMC2   O3517933   0.937   2.580  13.044  0.0000  0.0000  0.0000
 2195TMC2  OH3617934   0.436   2.465  13.145  0.0000  0.0000  0.0000
 2196TMC3  CA3717935   1.185  -2.263  12.704  0.0000  0.0000  0.0000
 2196TMC3  CA3817936   1.298  -2.340  12.697  0.0000  0.0000  0.0000
 2196TMC3  CA3917937   1.428  -2.291  12.719  0.0000  0.0000  0.0000
 2196TMC3  CA4017938   1.446  -2.157  12.763  0.0000  0.0000  0.0000
 2196TMC3  CA4117939   1.333  -2.074  12.766  0.0000  0.0000  0.0000
 2196TMC3  CA4217940   1.203  -2.126  12.739  0.0000  0.0000  0.0000
 2196TMC3  CB4317941   1.052  -2.312  12.667  0.0000  0.0000  0.0000
 2196TMC3  CB4417942   1.542  -2.387  12.692  0.0000  0.0000  0.0000
 2196TMC3  CB4517943   1.351  -1.925  12.796  0.0000  0.0000  0.0000
 2196TMC3  HA4617944   1.274  -2.444  12.678  0.0000  0.0000  0.0000
 2196TMC3  HA4717945   1.545  -2.117  12.781  0.0000  0.0000  0.0000
 2196TMC3  HA4817946   1.122  -2.053  12.745  0.0000  0.0000  0.0000
 2196TMC3   O4917947   0.953  -2.279  12.721  0.0000  0.0000  0.0000
 2196TMC3   O5017948   1.505  -2.491  12.635  0.0000  0.0000  0.0000
 2196TMC3   O5117949   1.259  -1.846  12.788  0.0000  0.0000  0.0000
 2197TMC2   C2017950   1.417  -0.385  11.472  0.0000  0.0000  0.0000
 2197TMC2  CA2117951   1.454  -0.289  11.579  0.0000  0.0000  0.0000
 2197TMC2  CA2217952   1.574  -0.221  11.586  0.0000  0.0000  0.0000
 2197TMC2  CA2317953   1.615  -0.139  11.684  0.0000  0.0000  0.0000
 2197TMC2  CA2417954   1.531  -0.115  11.789  0.0000  0.0000  0.0000
 2197TMC2  CA2517955   1.408  -0.173  11.798  0.0000  0.0000  0.0000
 2197TMC2  CA2617956   1.373  -0.260  11.689  0.0000  0.0000  0.0000
 2197TMC2  CB2717957   1.744  -0.062  11.670  0.0000  0.0000  0.0000
 2197TMC2  CB2817958   1.307  -0.149  11.905  0.0000  0.0000  0.0000
 2197TMC2  HA2917959   1.634  -0.241  11.497  0.0000  0.0000  0.0000
 2197TMC2  HA3017960   1.553  -0.046  11.870  0.0000  0.0000  0.0000
 2197TMC2  HA3117961   1.276  -0.308  11.692  0.0000  0.0000  0.0000
 2197TMC2  HO3217962   1.592  -0.395  11.398  0.0000  0.0000  0.0000
 2197TMC2   O3317963   1.301  -0.430  11.460  0.0000  0.0000  0.0000
 2197TMC2   O3417964   1.807  -0.073  11.566  0.0000  0.0000  0.0000
 2197TMC2   O3517965   1.223  -0.240  11.925  0.0000  0.0000  0.0000
 2197TMC2  OH3617966   1.509  -0.443  11.385  0.0000  0.0000  0.0000
 2198TMC2   C2017967   0.842   0.922  12.875  0.0000  0.0000  0.0000
 2198TMC2  CA2117968   0.981   0.923  12.820  0.0000  0.0000  0.0000
 2198TMC2  CA2217969   1.026   1.023  12.731  0.0000  0.0000  0.0000
 2198TMC2  CA2317970   1.155   1.023  12.686  0.0000  0.0000  0.0000
 2198TMC2  CA2417971   1.238   0.921  12.728  0.0000  0.0000  0.0000
 2198TMC2  CA2517972   1.192   0.822  12.806  0.0000  0.0000  0.0000
 2198TMC2  CA2617973   1.063   0.818  12.851  0.0000  0.0000  0.0000
 2198TMC2  CB2717974   1.217   1.147  12.623  0.0000  0.0000  0.0000
 2198TMC2  CB2817975   1.293   0.716  12.835  0.0000  0.0000  0.0000
 2198TMC2  HA2917976   0.973   1.111  12.696  0.0000  0.0000  0.0000
 2198TMC2  HA3017977   1.341   0.912  12.694  0.0000  0.0000  0.0000
 2198TMC2  HA3117978   1.030   0.734  12.911  0.0000  0.0000  0.0000
 2198TMC2  HO3217979   0.842   1.080  12.778  0.0000  0.0000  0.0000
 2198TMC2   O3317980   0.796   0.839  12.955  0.0000  0.0000  0.0000
 2198TMC2   O3417981   1.340   1.153  12.614  0.0000  0.0000  0.0000
 2198TMC2   O3517982   1.407   0.744  12.870  0.0000  0.0000  0.0000
 2198TMC2  OH3617983   0.777   1.032  12.832  0.0000  0.0000  0.0000
 2199TMC3  CA3717984   4.377  -0.130  11.090  0.0000  0.0000  0.0000
 2199TMC3  CA3817985   4.394  -0.257  11.041  0.0000  0.0000  0.0000
 2199TMC3  CA3917986   4.469  -0.347  11.111  0.0000  0.0000  0.0000
 2199TMC3  CA4017987   4.539  -0.312  11.225  0.0000  0.0000  0.0000
 2199TMC3  CA4117988   4.507  -0.188  11.280  0.0000  0.0000  0.0000
 2199TMC3  CA4217989   4.444  -0.090  11.205  0.0000  0.0000  0.0000
 2199TMC3  CB4317990   4.284  -0.028  11.025  0.0000  0.0000  0.0000
 2199TMC3  CB4417991   4.464  -0.488  11.076  0.0000  0.0000  0.0000
 2199TMC3  CB4517992   4.531  -0.159  11.426  0.0000  0.0000  0.0000
 2199TMC3  HA4617993   4.333  -0.293  10.959  0.0000  0.0000  0.0000
 2199TMC3  HA4717994   4.592  -0.385  11.285  0.0000  0.0000  0.0000
 2199TMC3  HA4817995   4.403  -0.001  11.252  0.0000  0.0000  0.0000
 2199TMC3   O4917996   4.252   0.081  11.080  0.0000  0.0000  0.0000
 2199TMC3   O5017997   4.475  -0.570  11.165  0.0000  0.0000  0.0000
 2199TMC3   O5117998   4.444  -0.116  11.496  0.0000  0.0000  0.0000
 2200TMC2   C2017999   2.423  -0.072  11.115  0.0000  0.0000  0.0000
 2200TMC2  CA2118000   2.529   0.033  11.107  0.0000  0.0000  0.0000
 2200TMC2  CA2218001   2.504   0.166  11.123  0.0000  0.0000  0.0000
 2200TMC2  CA2318002   2.606   0.254  11.115  0.0000  0.0000  0.0000
 2200TMC2  CA2418003   2.737   0.219  11.096  0.0000  0.0000  0.0000
 2200TMC2  CA2518004   2.767   0.080  11.078  0.0000  0.0000  0.0000
 2200TMC2  CA2618005   2.661  -0.010  11.092  0.0000  0.0000  0.0000
 2200TMC2  CB2718006   2.579   0.390  11.167  0.0000  0.0000  0.0000
 2200TMC2  CB2818007   2.908   0.031  11.071  0.0000  0.0000  0.0000
 2200TMC2  HA2918008   2.407   0.205  11.152  0.0000  0.0000  0.0000
 2200TMC2  HA3018009   2.816   0.293  11.104  0.0000  0.0000  0.0000
 2200TMC2  HA3118010   2.684  -0.116  11.085  0.0000  0.0000  0.0000
 2200TMC2  HO3218011   2.318   0.019  11.247  0.0000  0.0000  0.0000
 2200TMC2   O3318012   2.432  -0.166  11.039  0.0000  0.0000  0.0000
 2200TMC2   O3418013   2.508   0.410  11.268  0.0000  0.0000  0.0000
 2200TMC2   O3518014   2.936  -0.089  11.060  0.0000  0.0000  0.0000
 2200TMC2  OH3618015   2.322  -0.063  11.196  0.0000  0.0000  0.0000
 2201TMC3  CA3718016   1.139   0.094  11.340  0.0000  0.0000  0.0000
 2201TMC3  CA3818017   1.115   0.124  11.477  0.0000  0.0000  0.0000
 2201TMC3  CA3918018   1.075   0.011  11.556  0.0000  0.0000  0.0000
 2201TMC3  CA4018019   1.053  -0.117  11.499  0.0000  0.0000  0.0000
 2201TMC3  CA4118020   1.083  -0.142  11.366  0.0000  0.0000  0.0000
 2201TMC3  CA4218021   1.120  -0.031  11.287  0.0000  0.0000  0.0000
 2201TMC3  CB4318022   1.194   0.199  11.248  0.0000  0.0000  0.0000
 2201TMC3  CB4418023   1.056   0.023  11.704  0.0000  0.0000  0.0000
 2201TMC3  CB4518024   1.076  -0.279  11.306  0.0000  0.0000  0.0000
 2201TMC3  HA4618025   1.139   0.220  11.522  0.0000  0.0000  0.0000
 2201TMC3  HA4718026   1.019  -0.200  11.560  0.0000  0.0000  0.0000
 2201TMC3  HA4818027   1.132  -0.039  11.179  0.0000  0.0000  0.0000
 2201TMC3   O4918028   1.263   0.174  11.149  0.0000  0.0000  0.0000
 2201TMC3   O5018029   1.016  -0.067  11.775  0.0000  0.0000  0.0000
 2201TMC3   O5118030   0.984  -0.357  11.327  0.0000  0.0000  0.0000
 2202TMC3  CA3718031   2.832   0.771  10.643  0.0000  0.0000  0.0000
 2202TMC3  CA3818032   2.841   0.901  10.700  0.0000  0.0000  0.0000
 2202TMC3  CA3918033   2.737   0.952  10.779  0.0000  0.0000  0.0000
 2202TMC3  CA4018034   2.620   0.879  10.792  0.0000  0.0000  0.0000
 2202TMC3  CA4118035   2.599   0.766  10.709  0.0000  0.0000  0.0000
 2202TMC3  CA4218036   2.704   0.711  10.629  0.0000  0.0000  0.0000
 2202TMC3  CB4318037   2.951   0.701  10.577  0.0000  0.0000  0.0000
 2202TMC3  CB4418038   2.748   1.089  10.839  0.0000  0.0000  0.0000
 2202TMC3  CB4518039   2.471   0.686  10.714  0.0000  0.0000  0.0000
 2202TMC3  HA4618040   2.931   0.959  10.688  0.0000  0.0000  0.0000
 2202TMC3  HA4718041   2.536   0.914  10.851  0.0000  0.0000  0.0000
 2202TMC3  HA4818042   2.681   0.621  10.571  0.0000  0.0000  0.0000
 2202TMC3   O4918043   2.937   0.602  10.506  0.0000  0.0000  0.0000
 2202TMC3   O5018044   2.645   1.148  10.863  0.0000  0.0000  0.0000
 2202TMC3   O5118045   2.452   0.594  10.640  0.0000  0.0000  0.0000
 2203TMC1    C118046   4.567  -1.539  11.957  0.0000  0.0000  0.0000
 2203TMC1    C218047   4.352  -1.752  11.554  0.0000  0.0000  0.0000
 2203TMC1   CA318048   4.533  -1.545  11.814  0.0000  0.0000  0.0000
 2203TMC1   CA418049   4.478  -1.653  11.754  0.0000  0.0000  0.0000
 2203TMC1   CA518050   4.435  -1.644  11.619  0.0000  0.0000  0.0000
 2203TMC1   CA618051   4.464  -1.526  11.542  0.0000  0.0000  0.0000
 2203TMC1   CA718052   4.511  -1.414  11.612  0.0000  0.0000  0.0000
 2203TMC1   CA818053   4.542  -1.421  11.749  0.0000  0.0000  0.0000
 2203TMC1   CB918054   4.526  -1.281  11.551  0.0000  0.0000  0.0000
 2203TMC1  HA1018055   4.560  -1.330  11.805  0.0000  0.0000  0.0000
 2203TMC1  HA1118056   4.468  -1.742  11.816  0.0000  0.0000  0.0000
 2203TMC1  HA1218057   4.429  -1.512  11.440  0.0000  0.0000  0.0000
 2203TMC1  HO1318058   4.714  -1.446  11.887  0.0000  0.0000  0.0000
 2203TMC1  HO1418059   4.400  -1.873  11.703  0.0000  0.0000  0.0000
 2203TMC1   O1518060   4.505  -1.605  12.036  0.0000  0.0000  0.0000
 2203TMC1   O1618061   4.293  -1.730  11.452  0.0000  0.0000  0.0000
 2203TMC1   O1718062   4.564  -1.180  11.613  0.0000  0.0000  0.0000
 2203TMC1  OH1818063   4.686  -1.483  11.972  0.0000  0.0000  0.0000
 2203TMC1  OH1918064   4.348  -1.873  11.621  0.0000  0.0000  0.0000
 2204TMC2   C2018065   1.623   0.541  11.169  0.0000  0.0000  0.0000
 2204TMC2  CA2118066   1.595   0.550  11.320  0.0000  0.0000  0.0000
 2204TMC2  CA2218067   1.610   0.679  11.379  0.0000  0.0000  0.0000
 2204TMC2  CA2318068   1.580   0.702  11.516  0.0000  0.0000  0.0000
 2204TMC2  CA2418069   1.551   0.591  11.593  0.0000  0.0000  0.0000
 2204TMC2  CA2518070   1.530   0.466  11.540  0.0000  0.0000  0.0000
 2204TMC2  CA2618071   1.553   0.444  11.401  0.0000  0.0000  0.0000
 2204TMC2  CB2718072   1.580   0.836  11.582  0.0000  0.0000  0.0000
 2204TMC2  CB2818073   1.478   0.357  11.624  0.0000  0.0000  0.0000
 2204TMC2  HA2918074   1.639   0.760  11.313  0.0000  0.0000  0.0000
 2204TMC2  HA3018075   1.512   0.611  11.692  0.0000  0.0000  0.0000
 2204TMC2  HA3118076   1.541   0.347  11.352  0.0000  0.0000  0.0000
 2204TMC2  HO3218077   1.527   0.392  11.176  0.0000  0.0000  0.0000
 2204TMC2   O3318078   1.680   0.630  11.111  0.0000  0.0000  0.0000
 2204TMC2   O3418079   1.491   0.858  11.669  0.0000  0.0000  0.0000
 2204TMC2   O3518080   1.399   0.279  11.575  0.0000  0.0000  0.0000
 2204TMC2  OH3618081   1.588   0.427  11.109  0.0000  0.0000  0.0000
 2205TMC1    C118082   3.536   0.267  12.031  0.0000  0.0000  0.0000
 2205TMC1    C218083   3.718   0.442  11.618  0.0000  0.0000  0.0000
 2205TMC1   CA318084   3.513   0.320  11.899  0.0000  0.0000  0.0000
 2205TMC1   CA418085   3.615   0.335  11.805  0.0000  0.0000  0.0000
 2205TMC1   CA518086   3.594   0.416  11.694  0.0000  0.0000  0.0000
 2205TMC1   CA618087   3.468   0.462  11.665  0.0000  0.0000  0.0000
 2205TMC1   CA718088   3.363   0.445  11.754  0.0000  0.0000  0.0000
 2205TMC1   CA818089   3.388   0.380  11.871  0.0000  0.0000  0.0000
 2205TMC1   CB918090   3.224   0.494  11.733  0.0000  0.0000  0.0000
 2205TMC1  HA1018091   3.311   0.377  11.947  0.0000  0.0000  0.0000
 2205TMC1  HA1118092   3.713   0.291  11.823  0.0000  0.0000  0.0000
 2205TMC1  HA1218093   3.450   0.514  11.571  0.0000  0.0000  0.0000
 2205TMC1  HO1318094   3.721   0.241  11.986  0.0000  0.0000  0.0000
 2205TMC1  HO1418095   3.651   0.615  11.612  0.0000  0.0000  0.0000
 2205TMC1   O1518096   3.447   0.265  12.113  0.0000  0.0000  0.0000
 2205TMC1   O1618097   3.818   0.367  11.601  0.0000  0.0000  0.0000
 2205TMC1   O1718098   3.149   0.514  11.826  0.0000  0.0000  0.0000
 2205TMC1  OH1818099   3.657   0.223  12.058  0.0000  0.0000  0.0000
 2205TMC1  OH1918100   3.716   0.561  11.564  0.0000  0.0000  0.0000
 2206TMC2   C2018101   1.118   1.098  11.761  0.0000  0.0000  0.0000
 2206TMC2  CA2118102   1.213   1.107  11.646  0.0000  0.0000  0.0000
 2206TMC2  CA2218103   1.220   1.012  11.548  0.0000  0.0000  0.0000
 2206TMC2  CA2318104   1.317   1.019  11.445  0.0000  0.0000  0.0000
 2206TMC2  CA2418105   1.414   1.120  11.458  0.0000  0.0000  0.0000
 2206TMC2  CA2518106   1.402   1.222  11.554  0.0000  0.0000  0.0000
 2206TMC2  CA2618107   1.293   1.215  11.644  0.0000  0.0000  0.0000
 2206TMC2  CB2718108   1.332   0.914  11.340  0.0000  0.0000  0.0000
 2206TMC2  CB2818109   1.506   1.333  11.555  0.0000  0.0000  0.0000
 2206TMC2  HA2918110   1.143   0.936  11.544  0.0000  0.0000  0.0000
 2206TMC2  HA3018111   1.494   1.133  11.386  0.0000  0.0000  0.0000
 2206TMC2  HA3118112   1.294   1.284  11.728  0.0000  0.0000  0.0000
 2206TMC2  HO3218113   1.056   0.933  11.699  0.0000  0.0000  0.0000
 2206TMC2   O3318114   1.117   1.185  11.846  0.0000  0.0000  0.0000
 2206TMC2   O3418115   1.409   0.926  11.245  0.0000  0.0000  0.0000
 2206TMC2   O3518116   1.595   1.336  11.473  0.0000  0.0000  0.0000
 2206TMC2  OH3618117   1.057   0.980  11.784  0.0000  0.0000  0.0000
 2207TMC1    C118118   5.225   0.204  12.104  0.0000  0.0000  0.0000
 2207TMC1    C218119   5.082  -0.078  12.490  0.0000  0.0000  0.0000
 2207TMC1   CA318120   5.133   0.107  12.164  0.0000  0.0000  0.0000
 2207TMC1   CA418121   5.143   0.074  12.303  0.0000  0.0000  0.0000
 2207TMC1   CA518122   5.053  -0.017  12.355  0.0000  0.0000  0.0000
 2207TMC1   CA618123   4.947  -0.069  12.278  0.0000  0.0000  0.0000
 2207TMC1   CA718124   4.944  -0.031  12.139  0.0000  0.0000  0.0000
 2207TMC1   CA818125   5.036   0.057  12.083  0.0000  0.0000  0.0000
 2207TMC1   CB918126   4.844  -0.100  12.059  0.0000  0.0000  0.0000
 2207TMC1  HA1018127   5.032   0.084  11.978  0.0000  0.0000  0.0000
 2207TMC1  HA1118128   5.233   0.113  12.349  0.0000  0.0000  0.0000
 2207TMC1  HA1218129   4.880  -0.140  12.324  0.0000  0.0000  0.0000
 2207TMC1  HO1318130   5.287   0.272  12.276  0.0000  0.0000  0.0000
 2207TMC1  HO1418131   5.250   0.003  12.480  0.0000  0.0000  0.0000
 2207TMC1   O1518132   5.241   0.218  11.984  0.0000  0.0000  0.0000
 2207TMC1   O1618133   5.006  -0.164  12.536  0.0000  0.0000  0.0000
 2207TMC1   O1718134   4.753  -0.145  12.124  0.0000  0.0000  0.0000
 2207TMC1  OH1818135   5.298   0.290  12.181  0.0000  0.0000  0.0000
 2207TMC1  OH1918136   5.193  -0.038  12.548  0.0000  0.0000  0.0000
 2208TMC1    C118137   3.990   0.662  10.951  0.0000  0.0000  0.0000
 2208TMC1    C218138   3.823   0.184  11.043  0.0000  0.0000  0.0000
 2208TMC1   CA318139   3.894   0.544  10.935  0.0000  0.0000  0.0000
 2208TMC1   CA418140   3.907   0.416  10.992  0.0000  0.0000  0.0000
 2208TMC1   CA518141   3.812   0.315  10.971  0.0000  0.0000  0.0000
 2208TMC1   CA618142   3.701   0.345  10.897  0.0000  0.0000  0.0000
 2208TMC1   CA718143   3.683   0.473  10.840  0.0000  0.0000  0.0000
 2208TMC1   CA818144   3.776   0.573  10.863  0.0000  0.0000  0.0000
 2208TMC1   CB918145   3.552   0.493  10.771  0.0000  0.0000  0.0000
 2208TMC1  HA1018146   3.767   0.671  10.818  0.0000  0.0000  0.0000
 2208TMC1  HA1118147   3.993   0.399  11.056  0.0000  0.0000  0.0000
 2208TMC1  HA1218148   3.634   0.268  10.860  0.0000  0.0000  0.0000
 2208TMC1  HO1318149   4.113   0.565  11.078  0.0000  0.0000  0.0000
 2208TMC1  HO1418150   4.011   0.188  11.013  0.0000  0.0000  0.0000
 2208TMC1   O1518151   3.977   0.760  10.881  0.0000  0.0000  0.0000
 2208TMC1   O1618152   3.722   0.135  11.092  0.0000  0.0000  0.0000
 2208TMC1   O1718153   3.472   0.404  10.752  0.0000  0.0000  0.0000
 2208TMC1  OH1818154   4.093   0.654  11.043  0.0000  0.0000  0.0000
 2208TMC1  OH1918155   3.948   0.133  11.063  0.0000  0.0000  0.0000
 2209TMC1    C118156   2.021   2.369  13.447  0.0000  0.0000  0.0000
 2209TMC1    C218157   1.991   2.041  13.083  0.0000  0.0000  0.0000
 2209TMC1   CA318158   1.958   2.326  13.317  0.0000  0.0000  0.0000
 2209TMC1   CA418159   1.994   2.201  13.266  0.0000  0.0000  0.0000
 2209TMC1   CA518160   1.934   2.154  13.151  0.0000  0.0000  0.0000
 2209TMC1   CA618161   1.823   2.216  13.097  0.0000  0.0000  0.0000
 2209TMC1   CA718162   1.777   2.330  13.161  0.0000  0.0000  0.0000
 2209TMC1   CA818163   1.849   2.384  13.265  0.0000  0.0000  0.0000
 2209TMC1   CB918164   1.658   2.397  13.107  0.0000  0.0000  0.0000
 2209TMC1  HA1018165   1.820   2.478  13.312  0.0000  0.0000  0.0000
 2209TMC1  HA1118166   2.084   2.153  13.305  0.0000  0.0000  0.0000
 2209TMC1  HA1218167   1.765   2.177  13.014  0.0000  0.0000  0.0000
 2209TMC1  HO1318168   1.984   2.544  13.388  0.0000  0.0000  0.0000
 2209TMC1  HO1418169   1.821   1.977  13.084  0.0000  0.0000  0.0000
 2209TMC1   O1518170   2.078   2.290  13.524  0.0000  0.0000  0.0000
 2209TMC1   O1618171   2.112   2.017  13.078  0.0000  0.0000  0.0000
 2209TMC1   O1718172   1.666   2.417  12.985  0.0000  0.0000  0.0000
 2209TMC1  OH1818173   2.030   2.499  13.461  0.0000  0.0000  0.0000
 2209TMC1  OH1918174   1.906   1.943  13.052  0.0000  0.0000  0.0000
 2210TMC2   C2018175   3.788   1.273  13.627  0.0000  0.0000  0.0000
 2210TMC2  CA2118176   3.894   1.178  13.585  0.0000  0.0000  0.0000
 2210TMC2  CA2218177   3.866   1.047  13.544  0.0000  0.0000  0.0000
 2210TMC2  CA2318178   3.962   0.963  13.492  0.0000  0.0000  0.0000
 2210TMC2  CA2418179   4.095   1.006  13.493  0.0000  0.0000  0.0000
 2210TMC2  CA2518180   4.124   1.137  13.526  0.0000  0.0000  0.0000
 2210TMC2  CA2618181   4.024   1.217  13.577  0.0000  0.0000  0.0000
 2210TMC2  CB2718182   3.912   0.828  13.449  0.0000  0.0000  0.0000
 2210TMC2  CB2818183   4.256   1.194  13.522  0.0000  0.0000  0.0000
 2210TMC2  HA2918184   3.763   1.015  13.556  0.0000  0.0000  0.0000
 2210TMC2  HA3018185   4.174   0.946  13.450  0.0000  0.0000  0.0000
 2210TMC2  HA3118186   4.048   1.322  13.596  0.0000  0.0000  0.0000
 2210TMC2  HO3218187   3.921   1.373  13.705  0.0000  0.0000  0.0000
 2210TMC2   O3318188   3.673   1.264  13.585  0.0000  0.0000  0.0000
 2210TMC2   O3418189   3.793   0.804  13.460  0.0000  0.0000  0.0000
 2210TMC2   O3518190   4.275   1.299  13.581  0.0000  0.0000  0.0000
 2210TMC2  OH3618191   3.826   1.384  13.690  0.0000  0.0000  0.0000
 2211TMC3  CA3718192   0.330   0.069  13.068  0.0000  0.0000  0.0000
 2211TMC3  CA3818193   0.342   0.207  13.085  0.0000  0.0000  0.0000
 2211TMC3  CA3918194   0.271   0.268  13.191  0.0000  0.0000  0.0000
 2211TMC3  CA4018195   0.191   0.190  13.277  0.0000  0.0000  0.0000
 2211TMC3  CA4118196   0.169   0.052  13.250  0.0000  0.0000  0.0000
 2211TMC3  CA4218197   0.247  -0.008  13.151  0.0000  0.0000  0.0000
 2211TMC3  CB4318198   0.416  -0.001  12.968  0.0000  0.0000  0.0000
 2211TMC3  CB4418199   0.294   0.416  13.222  0.0000  0.0000  0.0000
 2211TMC3  CB4518200   0.077  -0.031  13.343  0.0000  0.0000  0.0000
 2211TMC3  HA4618201   0.402   0.261  13.013  0.0000  0.0000  0.0000
 2211TMC3  HA4718202   0.134   0.230  13.360  0.0000  0.0000  0.0000
 2211TMC3  HA4818203   0.246  -0.116  13.136  0.0000  0.0000  0.0000
 2211TMC3   O4918204   0.430   0.058  12.859  0.0000  0.0000  0.0000
 2211TMC3   O5018205   0.251   0.469  13.322  0.0000  0.0000  0.0000
 2211TMC3   O5118206  -0.003   0.024  13.410  0.0000  0.0000  0.0000
 2212TMC2   C2018207   4.926  -1.826  12.970  0.0000  0.0000  0.0000
 2212TMC2  CA2118208   5.027  -1.722  12.946  0.0000  0.0000  0.0000
 2212TMC2  CA2218209   5.038  -1.619  13.037  0.0000  0.0000  0.0000
 2212TMC2  CA2318210   5.118  -1.505  13.017  0.0000  0.0000  0.0000
 2212TMC2  CA2418211   5.178  -1.488  12.894  0.0000  0.0000  0.0000
 2212TMC2  CA2518212   5.176  -1.592  12.795  0.0000  0.0000  0.0000
 2212TMC2  CA2618213   5.095  -1.704  12.823  0.0000  0.0000  0.0000
 2212TMC2  CB2718214   5.123  -1.392  13.109  0.0000  0.0000  0.0000
 2212TMC2  CB2818215   5.246  -1.585  12.663  0.0000  0.0000  0.0000
 2212TMC2  HA2918216   4.986  -1.630  13.132  0.0000  0.0000  0.0000
 2212TMC2  HA3018217   5.243  -1.404  12.869  0.0000  0.0000  0.0000
 2212TMC2  HA3118218   5.090  -1.779  12.745  0.0000  0.0000  0.0000
 2212TMC2  HO3218219   4.953  -1.877  12.788  0.0000  0.0000  0.0000
 2212TMC2   O3318220   4.876  -1.842  13.079  0.0000  0.0000  0.0000
 2212TMC2   O3418221   5.209  -1.308  13.095  0.0000  0.0000  0.0000
 2212TMC2   O3518222   5.291  -1.687  12.611  0.0000  0.0000  0.0000
 2212TMC2  OH3618223   4.893  -1.902  12.860  0.0000  0.0000  0.0000
 2213TMC1    C118224   3.626   0.584  13.638  0.0000  0.0000  0.0000
 2213TMC1    C218225   3.947   0.859  13.915  0.0000  0.0000  0.0000
 2213TMC1   CA318226   3.741   0.598  13.730  0.0000  0.0000  0.0000
 2213TMC1   CA418227   3.786   0.725  13.776  0.0000  0.0000  0.0000
 2213TMC1   CA518228   3.895   0.731  13.866  0.0000  0.0000  0.0000
 2213TMC1   CA618229   3.946   0.616  13.925  0.0000  0.0000  0.0000
 2213TMC1   CA718230   3.911   0.493  13.875  0.0000  0.0000  0.0000
 2213TMC1   CA818231   3.805   0.486  13.779  0.0000  0.0000  0.0000
 2213TMC1   CB918232   3.959   0.366  13.938  0.0000  0.0000  0.0000
 2213TMC1  HA1018233   3.784   0.390  13.732  0.0000  0.0000  0.0000
 2213TMC1  HA1118234   3.740   0.813  13.732  0.0000  0.0000  0.0000
 2213TMC1  HA1218235   4.030   0.615  13.993  0.0000  0.0000  0.0000
 2213TMC1  HO1318236   3.582   0.775  13.662  0.0000  0.0000  0.0000
 2213TMC1  HO1418237   4.100   0.779  13.999  0.0000  0.0000  0.0000
 2213TMC1   O1518238   3.603   0.476  13.583  0.0000  0.0000  0.0000
 2213TMC1   O1618239   3.892   0.963  13.884  0.0000  0.0000  0.0000
 2213TMC1   O1718240   3.926   0.261  13.888  0.0000  0.0000  0.0000
 2213TMC1  OH1818241   3.562   0.700  13.604  0.0000  0.0000  0.0000
 2213TMC1  OH1918242   4.063   0.868  13.988  0.0000  0.0000  0.0000
 2214TMC2   C2018243   3.727  -1.822  11.166  0.0000  0.0000  0.0000
 2214TMC2  CA2118244   3.792  -1.805  11.303  0.0000  0.0000  0.0000
 2214TMC2  CA2218245   3.766  -1.907  11.400  0.0000  0.0000  0.0000
 2214TMC2  CA2318246   3.811  -1.889  11.527  0.0000  0.0000  0.0000
 2214TMC2  CA2418247   3.891  -1.785  11.565  0.0000  0.0000  0.0000
 2214TMC2  CA2518248   3.925  -1.688  11.472  0.0000  0.0000  0.0000
 2214TMC2  CA2618249   3.878  -1.698  11.337  0.0000  0.0000  0.0000
 2214TMC2  CB2718250   3.785  -1.990  11.631  0.0000  0.0000  0.0000
 2214TMC2  CB2818251   4.022  -1.582  11.493  0.0000  0.0000  0.0000
 2214TMC2  HA2918252   3.705  -1.995  11.382  0.0000  0.0000  0.0000
 2214TMC2  HA3018253   3.927  -1.781  11.668  0.0000  0.0000  0.0000
 2214TMC2  HA3118254   3.915  -1.627  11.263  0.0000  0.0000  0.0000
 2214TMC2  HO3218255   3.723  -2.002  11.202  0.0000  0.0000  0.0000
 2214TMC2   O3318256   3.709  -1.732  11.086  0.0000  0.0000  0.0000
 2214TMC2   O3418257   3.827  -1.977  11.748  0.0000  0.0000  0.0000
 2214TMC2   O3518258   4.072  -1.522  11.403  0.0000  0.0000  0.0000
 2214TMC2  OH3618259   3.673  -1.946  11.140  0.0000  0.0000  0.0000
 2215TMC1    C118260   5.062  -2.043  13.428  0.0000  0.0000  0.0000
 2215TMC1    C218261   4.919  -2.429  13.699  0.0000  0.0000  0.0000
 2215TMC1   CA318262   4.961  -2.150  13.452  0.0000  0.0000  0.0000
 2215TMC1   CA418263   4.985  -2.244  13.554  0.0000  0.0000  0.0000
 2215TMC1   CA518264   4.887  -2.328  13.587  0.0000  0.0000  0.0000
 2215TMC1   CA618265   4.760  -2.327  13.519  0.0000  0.0000  0.0000
 2215TMC1   CA718266   4.730  -2.225  13.431  0.0000  0.0000  0.0000
 2215TMC1   CA818267   4.838  -2.145  13.393  0.0000  0.0000  0.0000
 2215TMC1   CB918268   4.603  -2.218  13.359  0.0000  0.0000  0.0000
 2215TMC1  HA1018269   4.820  -2.082  13.307  0.0000  0.0000  0.0000
 2215TMC1  HA1118270   5.078  -2.247  13.610  0.0000  0.0000  0.0000
 2215TMC1  HA1218271   4.677  -2.389  13.552  0.0000  0.0000  0.0000
 2215TMC1  HO1318272   4.940  -1.961  13.316  0.0000  0.0000  0.0000
 2215TMC1  HO1418273   4.859  -2.568  13.587  0.0000  0.0000  0.0000
 2215TMC1   O1518274   5.167  -2.048  13.488  0.0000  0.0000  0.0000
 2215TMC1   O1618275   4.990  -2.401  13.792  0.0000  0.0000  0.0000
 2215TMC1   O1718276   4.603  -2.154  13.259  0.0000  0.0000  0.0000
 2215TMC1  OH1818277   5.030  -1.944  13.348  0.0000  0.0000  0.0000
 2215TMC1  OH1918278   4.887  -2.553  13.679  0.0000  0.0000  0.0000
 2216TMC2   C2018279   3.422  -0.261  10.352  0.0000  0.0000  0.0000
 2216TMC2  CA2118280   3.553  -0.323  10.392  0.0000  0.0000  0.0000
 2216TMC2  CA2218281   3.661  -0.241  10.429  0.0000  0.0000  0.0000
 2216TMC2  CA2318282   3.783  -0.293  10.467  0.0000  0.0000  0.0000
 2216TMC2  CA2418283   3.801  -0.433  10.475  0.0000  0.0000  0.0000
 2216TMC2  CA2518284   3.695  -0.519  10.447  0.0000  0.0000  0.0000
 2216TMC2  CA2618285   3.568  -0.464  10.407  0.0000  0.0000  0.0000
 2216TMC2  CB2718286   3.899  -0.208  10.511  0.0000  0.0000  0.0000
 2216TMC2  CB2818287   3.707  -0.670  10.484  0.0000  0.0000  0.0000
 2216TMC2  HA2918288   3.639  -0.135  10.430  0.0000  0.0000  0.0000
 2216TMC2  HA3018289   3.895  -0.472  10.511  0.0000  0.0000  0.0000
 2216TMC2  HA3118290   3.476  -0.520  10.393  0.0000  0.0000  0.0000
 2216TMC2  HO3218291   3.517  -0.108  10.276  0.0000  0.0000  0.0000
 2216TMC2   O3318292   3.319  -0.326  10.357  0.0000  0.0000  0.0000
 2216TMC2   O3418293   4.013  -0.244  10.483  0.0000  0.0000  0.0000
 2216TMC2   O3518294   3.794  -0.706  10.559  0.0000  0.0000  0.0000
 2216TMC2  OH3618295   3.425  -0.136  10.295  0.0000  0.0000  0.0000
 2217TMC1    C118296   3.016  -1.292  14.262  0.0000  0.0000  0.0000
 2217TMC1    C218297   2.762  -0.910  14.041  0.0000  0.0000  0.0000
 2217TMC1   CA318298   2.901  -1.233  14.187  0.0000  0.0000  0.0000
 2217TMC1   CA418299   2.894  -1.099  14.148  0.0000  0.0000  0.0000
 2217TMC1   CA518300   2.781  -1.053  14.080  0.0000  0.0000  0.0000
 2217TMC1   CA618301   2.682  -1.143  14.044  0.0000  0.0000  0.0000
 2217TMC1   CA718302   2.688  -1.271  14.083  0.0000  0.0000  0.0000
 2217TMC1   CA818303   2.802  -1.315  14.148  0.0000  0.0000  0.0000
 2217TMC1   CB918304   2.588  -1.370  14.039  0.0000  0.0000  0.0000
 2217TMC1  HA1018305   2.818  -1.421  14.164  0.0000  0.0000  0.0000
 2217TMC1  HA1118306   2.969  -1.027  14.181  0.0000  0.0000  0.0000
 2217TMC1  HA1218307   2.593  -1.098  14.002  0.0000  0.0000  0.0000
 2217TMC1  HO1318308   3.040  -1.119  14.341  0.0000  0.0000  0.0000
 2217TMC1  HO1418309   2.912  -0.869  14.143  0.0000  0.0000  0.0000
 2217TMC1   O1518310   3.051  -1.408  14.264  0.0000  0.0000  0.0000
 2217TMC1   O1618311   2.674  -0.875  13.966  0.0000  0.0000  0.0000
 2217TMC1   O1718312   2.618  -1.480  13.988  0.0000  0.0000  0.0000
 2217TMC1  OH1818313   3.084  -1.206  14.339  0.0000  0.0000  0.0000
 2217TMC1  OH1918314   2.855  -0.823  14.079  0.0000  0.0000  0.0000
 2218TMC1    C118315   2.551   1.196  13.877  0.0000  0.0000  0.0000
 2218TMC1    C218316   2.532   1.474  13.460  0.0000  0.0000  0.0000
 2218TMC1   CA318317   2.593   1.222  13.737  0.0000  0.0000  0.0000
 2218TMC1   CA418318   2.541   1.325  13.661  0.0000  0.0000  0.0000
 2218TMC1   CA518319   2.585   1.349  13.535  0.0000  0.0000  0.0000
 2218TMC1   CA618320   2.684   1.269  13.477  0.0000  0.0000  0.0000
 2218TMC1   CA718321   2.742   1.165  13.550  0.0000  0.0000  0.0000
 2218TMC1   CA818322   2.693   1.141  13.677  0.0000  0.0000  0.0000
 2218TMC1   CB918323   2.851   1.075  13.500  0.0000  0.0000  0.0000
 2218TMC1  HA1018324   2.733   1.058  13.735  0.0000  0.0000  0.0000
 2218TMC1  HA1118325   2.461   1.384  13.704  0.0000  0.0000  0.0000
 2218TMC1  HA1218326   2.713   1.293  13.375  0.0000  0.0000  0.0000
 2218TMC1  HO1318327   2.693   1.074  13.899  0.0000  0.0000  0.0000
 2218TMC1  HO1418328   2.681   1.455  13.368  0.0000  0.0000  0.0000
 2218TMC1   O1518329   2.453   1.249  13.930  0.0000  0.0000  0.0000
 2218TMC1   O1618330   2.425   1.521  13.496  0.0000  0.0000  0.0000
 2218TMC1   O1718331   2.895   0.988  13.577  0.0000  0.0000  0.0000
 2218TMC1  OH1818332   2.622   1.118  13.949  0.0000  0.0000  0.0000
 2218TMC1  OH1918333   2.609   1.519  13.358  0.0000  0.0000  0.0000
 2219TMC2   C2018334   4.950   1.631  13.873  0.0000  0.0000  0.0000
 2219TMC2  CA2118335   4.966   1.653  13.723  0.0000  0.0000  0.0000
 2219TMC2  CA2218336   5.030   1.761  13.666  0.0000  0.0000  0.0000
 2219TMC2  CA2318337   5.039   1.770  13.525  0.0000  0.0000  0.0000
 2219TMC2  CA2418338   4.982   1.676  13.441  0.0000  0.0000  0.0000
 2219TMC2  CA2518339   4.904   1.577  13.501  0.0000  0.0000  0.0000
 2219TMC2  CA2618340   4.899   1.563  13.636  0.0000  0.0000  0.0000
 2219TMC2  CB2718341   5.131   1.865  13.465  0.0000  0.0000  0.0000
 2219TMC2  CB2818342   4.828   1.493  13.403  0.0000  0.0000  0.0000
 2219TMC2  HA2918343   5.086   1.828  13.730  0.0000  0.0000  0.0000
 2219TMC2  HA3018344   4.998   1.678  13.333  0.0000  0.0000  0.0000
 2219TMC2  HA3118345   4.845   1.482  13.684  0.0000  0.0000  0.0000
 2219TMC2  HO3218346   5.113   1.714  13.904  0.0000  0.0000  0.0000
 2219TMC2   O3318347   4.865   1.564  13.923  0.0000  0.0000  0.0000
 2219TMC2   O3418348   5.138   1.893  13.346  0.0000  0.0000  0.0000
 2219TMC2   O3518349   4.831   1.520  13.288  0.0000  0.0000  0.0000
 2219TMC2  OH3618350   5.033   1.695  13.956  0.0000  0.0000  0.0000
 2220TMC1    C118351   4.531   0.865  12.527  0.0000  0.0000  0.0000
 2220TMC1    C218352   4.365   0.672  12.962  0.0000  0.0000  0.0000
 2220TMC1   CA318353   4.520   0.749  12.621  0.0000  0.0000  0.0000
 2220TMC1   CA418354   4.446   0.754  12.743  0.0000  0.0000  0.0000
 2220TMC1   CA518355   4.424   0.648  12.828  0.0000  0.0000  0.0000
 2220TMC1   CA618356   4.472   0.527  12.790  0.0000  0.0000  0.0000
 2220TMC1   CA718357   4.533   0.508  12.665  0.0000  0.0000  0.0000
 2220TMC1   CA818358   4.565   0.618  12.582  0.0000  0.0000  0.0000
 2220TMC1   CB918359   4.572   0.375  12.624  0.0000  0.0000  0.0000
 2220TMC1  HA1018360   4.607   0.609  12.482  0.0000  0.0000  0.0000
 2220TMC1  HA1118361   4.419   0.853  12.777  0.0000  0.0000  0.0000
 2220TMC1  HA1218362   4.460   0.435  12.848  0.0000  0.0000  0.0000
 2220TMC1  HO1318363   4.554   0.987  12.662  0.0000  0.0000  0.0000
 2220TMC1  HO1418364   4.410   0.490  12.987  0.0000  0.0000  0.0000
 2220TMC1   O1518365   4.562   0.844  12.412  0.0000  0.0000  0.0000
 2220TMC1   O1618366   4.328   0.778  13.008  0.0000  0.0000  0.0000
 2220TMC1   O1718367   4.667   0.354  12.554  0.0000  0.0000  0.0000
 2220TMC1  OH1818368   4.521   0.995  12.571  0.0000  0.0000  0.0000
 2220TMC1  OH1918369   4.370   0.562  13.038  0.0000  0.0000  0.0000
 2221TMC1    C118370   4.270  -1.014  14.198  0.0000  0.0000  0.0000
 2221TMC1    C218371   4.197  -0.552  14.388  0.0000  0.0000  0.0000
 2221TMC1   CA318372   4.181  -0.912  14.267  0.0000  0.0000  0.0000
 2221TMC1   CA418373   4.216  -0.778  14.284  0.0000  0.0000  0.0000
 2221TMC1   CA518374   4.146  -0.690  14.371  0.0000  0.0000  0.0000
 2221TMC1   CA618375   4.026  -0.738  14.426  0.0000  0.0000  0.0000
 2221TMC1   CA718376   3.983  -0.866  14.390  0.0000  0.0000  0.0000
 2221TMC1   CA818377   4.066  -0.951  14.325  0.0000  0.0000  0.0000
 2221TMC1   CB918378   3.860  -0.924  14.443  0.0000  0.0000  0.0000
 2221TMC1  HA1018379   4.031  -1.052  14.307  0.0000  0.0000  0.0000
 2221TMC1  HA1118380   4.303  -0.732  14.238  0.0000  0.0000  0.0000
 2221TMC1  HA1218381   3.975  -0.678  14.501  0.0000  0.0000  0.0000
 2221TMC1  HO1318382   4.408  -0.944  14.298  0.0000  0.0000  0.0000
 2221TMC1  HO1418383   4.025  -0.499  14.476  0.0000  0.0000  0.0000
 2221TMC1   O1518384   4.222  -1.103  14.128  0.0000  0.0000  0.0000
 2221TMC1   O1618385   4.299  -0.520  14.337  0.0000  0.0000  0.0000
 2221TMC1   O1718386   3.844  -0.906  14.564  0.0000  0.0000  0.0000
 2221TMC1  OH1818387   4.399  -0.993  14.215  0.0000  0.0000  0.0000
 2221TMC1  OH1918388   4.117  -0.470  14.467  0.0000  0.0000  0.0000
 2222TMC2   C2018389   4.751  -0.462  12.564  0.0000  0.0000  0.0000
 2222TMC2  CA2118390   4.860  -0.549  12.621  0.0000  0.0000  0.0000
 2222TMC2  CA2218391   4.879  -0.678  12.566  0.0000  0.0000  0.0000
 2222TMC2  CA2318392   4.963  -0.765  12.639  0.0000  0.0000  0.0000
 2222TMC2  CA2418393   5.024  -0.723  12.763  0.0000  0.0000  0.0000
 2222TMC2  CA2518394   5.000  -0.599  12.814  0.0000  0.0000  0.0000
 2222TMC2  CA2618395   4.910  -0.516  12.749  0.0000  0.0000  0.0000
 2222TMC2  CB2718396   4.982  -0.911  12.600  0.0000  0.0000  0.0000
 2222TMC2  CB2818397   5.041  -0.562  12.955  0.0000  0.0000  0.0000
 2222TMC2  HA2918398   4.834  -0.688  12.468  0.0000  0.0000  0.0000
 2222TMC2  HA3018399   5.088  -0.794  12.816  0.0000  0.0000  0.0000
 2222TMC2  HA3118400   4.897  -0.418  12.794  0.0000  0.0000  0.0000
 2222TMC2  HO3218401   4.867  -0.324  12.590  0.0000  0.0000  0.0000
 2222TMC2   O3318402   4.640  -0.501  12.524  0.0000  0.0000  0.0000
 2222TMC2   O3418403   5.028  -0.997  12.674  0.0000  0.0000  0.0000
 2222TMC2   O3518404   4.971  -0.483  13.012  0.0000  0.0000  0.0000
 2222TMC2  OH3618405   4.771  -0.333  12.577  0.0000  0.0000  0.0000
 2223TMC1    C118406   6.289   2.185  13.495  0.0000  0.0000  0.0000
 2223TMC1    C218407   6.084   1.739  13.596  0.0000  0.0000  0.0000
 2223TMC1   CA318408   6.166   2.101  13.525  0.0000  0.0000  0.0000
 2223TMC1   CA418409   6.177   1.965  13.551  0.0000  0.0000  0.0000
 2223TMC1   CA518410   6.061   1.886  13.566  0.0000  0.0000  0.0000
 2223TMC1   CA618411   5.936   1.944  13.543  0.0000  0.0000  0.0000
 2223TMC1   CA718412   5.923   2.084  13.513  0.0000  0.0000  0.0000
 2223TMC1   CA818413   6.040   2.158  13.509  0.0000  0.0000  0.0000
 2223TMC1   CB918414   5.794   2.149  13.480  0.0000  0.0000  0.0000
 2223TMC1  HA1018415   6.034   2.262  13.478  0.0000  0.0000  0.0000
 2223TMC1  HA1118416   6.274   1.918  13.565  0.0000  0.0000  0.0000
 2223TMC1  HA1218417   5.848   1.883  13.564  0.0000  0.0000  0.0000
 2223TMC1  HO1318418   6.384   2.022  13.480  0.0000  0.0000  0.0000
 2223TMC1  HO1418419   5.914   1.702  13.512  0.0000  0.0000  0.0000
 2223TMC1   O1518420   6.281   2.308  13.481  0.0000  0.0000  0.0000
 2223TMC1   O1618421   6.184   1.692  13.644  0.0000  0.0000  0.0000
 2223TMC1   O1718422   5.800   2.264  13.441  0.0000  0.0000  0.0000
 2223TMC1  OH1818423   6.408   2.117  13.475  0.0000  0.0000  0.0000
 2223TMC1  OH1918424   5.983   1.652  13.559  0.0000  0.0000  0.0000
 2224TMC3  CA3718425   2.302   1.695  11.457  0.0000  0.0000  0.0000
 2224TMC3  CA3818426   2.168   1.700  11.507  0.0000  0.0000  0.0000
 2224TMC3  CA3918427   2.137   1.763  11.628  0.0000  0.0000  0.0000
 2224TMC3  CA4018428   2.241   1.815  11.694  0.0000  0.0000  0.0000
 2224TMC3  CA4118429   2.375   1.799  11.650  0.0000  0.0000  0.0000
 2224TMC3  CA4218430   2.404   1.749  11.526  0.0000  0.0000  0.0000
 2224TMC3  CB4318431   2.326   1.628  11.323  0.0000  0.0000  0.0000
 2224TMC3  CB4418432   1.996   1.766  11.687  0.0000  0.0000  0.0000
 2224TMC3  CB4518433   2.483   1.834  11.738  0.0000  0.0000  0.0000
 2224TMC3  HA4618434   2.085   1.658  11.451  0.0000  0.0000  0.0000
 2224TMC3  HA4718435   2.221   1.850  11.795  0.0000  0.0000  0.0000
 2224TMC3  HA4818436   2.504   1.750  11.484  0.0000  0.0000  0.0000
 2224TMC3   O4918437   2.423   1.665  11.254  0.0000  0.0000  0.0000
 2224TMC3   O5018438   1.970   1.835  11.782  0.0000  0.0000  0.0000
 2224TMC3   O5118439   2.589   1.872  11.690  0.0000  0.0000  0.0000
 2225TMC1    C118440   4.853   0.523  14.025  0.0000  0.0000  0.0000
 2225TMC1    C218441   4.350   0.521  13.990  0.0000  0.0000  0.0000
 2225TMC1   CA318442   4.730   0.468  13.957  0.0000  0.0000  0.0000
 2225TMC1   CA418443   4.608   0.513  14.002  0.0000  0.0000  0.0000
 2225TMC1   CA518444   4.484   0.468  13.947  0.0000  0.0000  0.0000
 2225TMC1   CA618445   4.496   0.384  13.834  0.0000  0.0000  0.0000
 2225TMC1   CA718446   4.621   0.334  13.795  0.0000  0.0000  0.0000
 2225TMC1   CA818447   4.739   0.369  13.862  0.0000  0.0000  0.0000
 2225TMC1   CB918448   4.626   0.255  13.664  0.0000  0.0000  0.0000
 2225TMC1  HA1018449   4.833   0.333  13.820  0.0000  0.0000  0.0000
 2225TMC1  HA1118450   4.610   0.584  14.084  0.0000  0.0000  0.0000
 2225TMC1  HA1218451   4.405   0.367  13.778  0.0000  0.0000  0.0000
 2225TMC1  HO1318452   4.784   0.703  14.047  0.0000  0.0000  0.0000
 2225TMC1  HO1418453   4.408   0.539  14.165  0.0000  0.0000  0.0000
 2225TMC1   O1518454   4.952   0.443  14.029  0.0000  0.0000  0.0000
 2225TMC1   O1618455   4.259   0.530  13.908  0.0000  0.0000  0.0000
 2225TMC1   O1718456   4.717   0.274  13.586  0.0000  0.0000  0.0000
 2225TMC1  OH1818457   4.853   0.647  14.086  0.0000  0.0000  0.0000
 2225TMC1  OH1918458   4.336   0.576  14.111  0.0000  0.0000  0.0000
 2226TMC1    C118459   4.985  -1.771  12.428  0.0000  0.0000  0.0000
 2226TMC1    C218460   5.235  -2.182  12.322  0.0000  0.0000  0.0000
 2226TMC1   CA318461   5.087  -1.837  12.341  0.0000  0.0000  0.0000
 2226TMC1   CA418462   5.112  -1.973  12.352  0.0000  0.0000  0.0000
 2226TMC1   CA518463   5.216  -2.038  12.291  0.0000  0.0000  0.0000
 2226TMC1   CA618464   5.310  -1.959  12.223  0.0000  0.0000  0.0000
 2226TMC1   CA718465   5.291  -1.818  12.209  0.0000  0.0000  0.0000
 2226TMC1   CA818466   5.173  -1.760  12.259  0.0000  0.0000  0.0000
 2226TMC1   CB918467   5.401  -1.748  12.129  0.0000  0.0000  0.0000
 2226TMC1  HA1018468   5.157  -1.654  12.237  0.0000  0.0000  0.0000
 2226TMC1  HA1118469   5.041  -2.032  12.409  0.0000  0.0000  0.0000
 2226TMC1  HA1218470   5.400  -2.008  12.189  0.0000  0.0000  0.0000
 2226TMC1  HO1318471   4.949  -1.641  12.289  0.0000  0.0000  0.0000
 2226TMC1  HO1418472   5.328  -2.224  12.143  0.0000  0.0000  0.0000
 2226TMC1   O1518473   4.959  -1.817  12.535  0.0000  0.0000  0.0000
 2226TMC1   O1618474   5.195  -2.233  12.422  0.0000  0.0000  0.0000
 2226TMC1   O1718475   5.466  -1.815  12.051  0.0000  0.0000  0.0000
 2226TMC1  OH1818476   4.914  -1.668  12.375  0.0000  0.0000  0.0000
 2226TMC1  OH1918477   5.303  -2.261  12.229  0.0000  0.0000  0.0000
 2227TMC1    C118478   5.770   0.393  13.784  0.0000  0.0000  0.0000
 2227TMC1    C218479   5.289   0.321  13.898  0.0000  0.0000  0.0000
 2227TMC1   CA318480   5.625   0.419  13.759  0.0000  0.0000  0.0000
 2227TMC1   CA418481   5.525   0.358  13.836  0.0000  0.0000  0.0000
 2227TMC1   CA518482   5.387   0.387  13.803  0.0000  0.0000  0.0000
 2227TMC1   CA618483   5.359   0.461  13.690  0.0000  0.0000  0.0000
 2227TMC1   CA718484   5.455   0.532  13.621  0.0000  0.0000  0.0000
 2227TMC1   CA818485   5.587   0.506  13.655  0.0000  0.0000  0.0000
 2227TMC1   CB918486   5.424   0.626  13.508  0.0000  0.0000  0.0000
 2227TMC1  HA1018487   5.664   0.557  13.597  0.0000  0.0000  0.0000
 2227TMC1  HA1118488   5.543   0.289  13.917  0.0000  0.0000  0.0000
 2227TMC1  HA1218489   5.254   0.465  13.660  0.0000  0.0000  0.0000
 2227TMC1  HO1318490   5.723   0.254  13.901  0.0000  0.0000  0.0000
 2227TMC1  HO1418491   5.169   0.375  13.766  0.0000  0.0000  0.0000
 2227TMC1   O1518492   5.856   0.463  13.729  0.0000  0.0000  0.0000
 2227TMC1   O1618493   5.325   0.255  13.996  0.0000  0.0000  0.0000
 2227TMC1   O1718494   5.505   0.657  13.422  0.0000  0.0000  0.0000
 2227TMC1  OH1818495   5.806   0.284  13.861  0.0000  0.0000  0.0000
 2227TMC1  OH1918496   5.164   0.328  13.851  0.0000  0.0000  0.0000
 2228TMC1    C118497   2.793  -1.173  10.662  0.0000  0.0000  0.0000
 2228TMC1    C218498   2.895  -0.949  11.092  0.0000  0.0000  0.0000
 2228TMC1   CA318499   2.891  -1.103  10.749  0.0000  0.0000  0.0000
 2228TMC1   CA418500   2.858  -1.050  10.873  0.0000  0.0000  0.0000
 2228TMC1   CA518501   2.945  -0.983  10.956  0.0000  0.0000  0.0000
 2228TMC1   CA618502   3.075  -0.963  10.911  0.0000  0.0000  0.0000
 2228TMC1   CA718503   3.120  -1.031  10.796  0.0000  0.0000  0.0000
 2228TMC1   CA818504   3.031  -1.099  10.714  0.0000  0.0000  0.0000
 2228TMC1   CB918505   3.266  -1.029  10.757  0.0000  0.0000  0.0000
 2228TMC1  HA1018506   3.049  -1.156  10.624  0.0000  0.0000  0.0000
 2228TMC1  HA1118507   2.759  -1.066  10.913  0.0000  0.0000  0.0000
 2228TMC1  HA1218508   3.144  -0.910  10.976  0.0000  0.0000  0.0000
 2228TMC1  HO1318509   2.917  -1.157  10.535  0.0000  0.0000  0.0000
 2228TMC1  HO1418510   3.035  -0.805  11.118  0.0000  0.0000  0.0000
 2228TMC1   O1518511   2.678  -1.201  10.704  0.0000  0.0000  0.0000
 2228TMC1   O1618512   2.803  -1.013  11.144  0.0000  0.0000  0.0000
 2228TMC1   O1718513   3.353  -0.974  10.826  0.0000  0.0000  0.0000
 2228TMC1  OH1818514   2.824  -1.186  10.532  0.0000  0.0000  0.0000
 2228TMC1  OH1918515   2.957  -0.846  11.160  0.0000  0.0000  0.0000
 2229TMC2   C2018516   4.032  -2.315  11.980  0.0000  0.0000  0.0000
 2229TMC2  CA2118517   3.926  -2.346  12.076  0.0000  0.0000  0.0000
 2229TMC2  CA2218518   3.792  -2.319  12.044  0.0000  0.0000  0.0000
 2229TMC2  CA2318519   3.693  -2.368  12.128  0.0000  0.0000  0.0000
 2229TMC2  CA2418520   3.733  -2.434  12.249  0.0000  0.0000  0.0000
 2229TMC2  CA2518521   3.865  -2.454  12.288  0.0000  0.0000  0.0000
 2229TMC2  CA2618522   3.959  -2.415  12.191  0.0000  0.0000  0.0000
 2229TMC2  CB2718523   3.549  -2.337  12.103  0.0000  0.0000  0.0000
 2229TMC2  CB2818524   3.903  -2.513  12.421  0.0000  0.0000  0.0000
 2229TMC2  HA2918525   3.771  -2.253  11.961  0.0000  0.0000  0.0000
 2229TMC2  HA3018526   3.658  -2.460  12.323  0.0000  0.0000  0.0000
 2229TMC2  HA3118527   4.063  -2.435  12.213  0.0000  0.0000  0.0000
 2229TMC2  HO3218528   3.907  -2.222  11.873  0.0000  0.0000  0.0000
 2229TMC2   O3318529   4.148  -2.345  12.004  0.0000  0.0000  0.0000
 2229TMC2   O3418530   3.474  -2.340  12.196  0.0000  0.0000  0.0000
 2229TMC2   O3518531   3.814  -2.561  12.488  0.0000  0.0000  0.0000
 2229TMC2  OH3618532   3.991  -2.269  11.860  0.0000  0.0000  0.0000
 2230SOL     OW18533   3.897   3.234  13.273  0.0000  0.0000  0.0000
 2230SOL    HW118534   3.916   3.183  13.194  0.0000  0.0000  0.0000
 2230SOL    HW218535   3.964   3.205  13.335  0.0000  0.0000  0.0000
 2230SOL     MW18536   3.908   3.223  13.271  0.0000  0.0000  0.0000
 2231SOL     OW18537   4.258   4.492  10.503  0.0000  0.0000  0.0000
 2231SOL    HW118538   4.175   4.444  10.497  0.0000  0.0000  0.0000
 2231SOL    HW218539   4.236   4.582  10.477  0.0000  0.0000  0.0000
 2231SOL     MW18540   4.244   4.498  10.499  0.0000  0.0000  0.0000
 2232SOL     OW18541   2.147   4.059  14.433  0.0000  0.0000  0.0000
 2232SOL    HW118542   2.117   4.140  14.475  0.0000  0.0000  0.0000
 2232SOL    HW218543   2.074   3.998  14.444  0.0000  0.0000  0.0000
 2232SOL     MW18544   2.133   4.062  14.440  0.0000  0.0000  0.0000
 2233SOL     OW18545   4.513   6.551  10.177  0.0000  0.0000  0.0000
 2233SOL    HW118546   4.602   6.540  10.143  0.0000  0.0000  0.0000
 2233SOL    HW218547   4.479   6.461  10.182  0.0000  0.0000  0.0000
 2233SOL     MW18548   4.521   6.537  10.173  0.0000  0.0000  0.0000
 2234SOL     OW18549   0.236   3.190  14.082  0.0000  0.0000  0.0000
 2234SOL    HW118550   0.270   3.125  14.020  0.0000  0.0000  0.0000
 2234SOL    HW218551   0.315   3.233  14.116  0.0000  0.0000  0.0000
 2234SOL     MW18552   0.251   3.187  14.079  0.0000  0.0000  0.0000
 2235SOL     OW18553   4.352   3.349  10.370  0.0000  0.0000  0.0000
 2235SOL    HW118554   4.259   3.343  10.394  0.0000  0.0000  0.0000
 2235SOL    HW218555   4.385   3.260  10.383  0.0000  0.0000  0.0000
 2235SOL     MW18556   4.344   3.336  10.375  0.0000  0.0000  0.0000
 2236SOL     OW18557   2.692   6.815  10.545  0.0000  0.0000  0.0000
 2236SOL    HW118558   2.680   6.909  10.530  0.0000  0.0000  0.0000
 2236SOL    HW218559   2.777   6.794  10.506  0.0000  0.0000  0.0000
 2236SOL     MW18560   2.702   6.824  10.538  0.0000  0.0000  0.0000
 2237SOL     OW18561   4.468   6.831  13.664  0.0000  0.0000  0.0000
 2237SOL    HW118562   4.525   6.797  13.733  0.0000  0.0000  0.0000
 2237SOL    HW218563   4.421   6.754  13.632  0.0000  0.0000  0.0000
 2237SOL     MW18564   4.469   6.816  13.669  0.0000  0.0000  0.0000
 2238SOL     OW18565   0.935   4.289  11.916  0.0000  0.0000  0.0000
 2238SOL    HW118566   1.010   4.346  11.899  0.0000  0.0000  0.0000
 2238SOL    HW218567   0.866   4.325  11.859  0.0000  0.0000  0.0000
 2238SOL     MW18568   0.936   4.301  11.906  0.0000  0.0000  0.0000
 2239SOL     OW18569   4.380   2.814  14.025  0.0000  0.0000  0.0000
 2239SOL    HW118570   4.357   2.887  13.967  0.0000  0.0000  0.0000
 2239SOL    HW218571   4.394   2.855  14.110  0.0000  0.0000  0.0000
 2239SOL     MW18572   4.379   2.829  14.028  0.0000  0.0000  0.0000
 2240SOL     OW18573   1.927   6.017   9.743  0.0000  0.0000  0.0000
 2240SOL    HW118574   1.872   6.074   9.797  0.0000  0.0000  0.0000
 2240SOL    HW218575   1.937   5.937   9.794  0.0000  0.0000  0.0000
 2240SOL     MW18576   1.921   6.014   9.757  0.0000  0.0000  0.0000
 2241SOL     OW18577   0.027   3.527  10.243  0.0000  0.0000  0.0000
 2241SOL    HW118578  -0.047   3.503  10.187  0.0000  0.0000  0.0000
 2241SOL    HW218579  -0.013   3.573  10.316  0.0000  0.0000  0.0000
 2241SOL     MW18580   0.012   3.530  10.245  0.0000  0.0000  0.0000
 2242SOL     OW18581   1.547   3.697  11.239  0.0000  0.0000  0.0000
 2242SOL    HW118582   1.495   3.764  11.284  0.0000  0.0000  0.0000
 2242SOL    HW218583   1.484   3.649  11.186  0.0000  0.0000  0.0000
 2242SOL     MW18584   1.532   3.700  11.238  0.0000  0.0000  0.0000
 2243SOL     OW18585   0.030   2.582  14.256  0.0000  0.0000  0.0000
 2243SOL    HW118586   0.032   2.642  14.182  0.0000  0.0000  0.0000
 2243SOL    HW218587   0.012   2.496  14.216  0.0000  0.0000  0.0000
 2243SOL     MW18588   0.028   2.578  14.241  0.0000  0.0000  0.0000
 2244SOL     OW18589   2.171   6.070  11.796  0.0000  0.0000  0.0000
 2244SOL    HW118590   2.258   6.111  11.797  0.0000  0.0000  0.0000
 2244SOL    HW218591   2.120   6.124  11.857  0.0000  0.0000  0.0000
 2244SOL     MW18592   2.176   6.083  11.804  0.0000  0.0000  0.0000
 2245SOL     OW18593   2.300   6.435  14.451  0.0000  0.0000  0.0000
 2245SOL    HW118594   2.289   6.344  14.422  0.0000  0.0000  0.0000
 2245SOL    HW218595   2.333   6.481  14.374  0.0000  0.0000  0.0000
 2245SOL     MW18596   2.303   6.429  14.437  0.0000  0.0000  0.0000
 2246SOL     OW18597   0.560   3.652  11.107  0.0000  0.0000  0.0000
 2246SOL    HW118598   0.522   3.718  11.050  0.0000  0.0000  0.0000
 2246SOL    HW218599   0.550   3.570  11.060  0.0000  0.0000  0.0000
 2246SOL     MW18600   0.554   3.650  11.094  0.0000  0.0000  0.0000
 2247SOL     OW18601   2.904   6.972  10.054  0.0000  0.0000  0.0000
 2247SOL    HW118602   2.870   7.061  10.059  0.0000  0.0000  0.0000
 2247SOL    HW218603   2.856   6.925  10.122  0.0000  0.0000  0.0000
 2247SOL     MW18604   2.893   6.978  10.064  0.0000  0.0000  0.0000
 2248SOL     OW18605   4.142   4.394   9.735  0.0000  0.0000  0.0000
 2248SOL    HW118606   4.116   4.486   9.729  0.0000  0.0000  0.0000
 2248SOL    HW218607   4.238   4.396   9.735  0.0000  0.0000  0.0000
 2248SOL     MW18608   4.151   4.407   9.734  0.0000  0.0000  0.0000
 2249SOL     OW18609   2.380   4.588  10.696  0.0000  0.0000  0.0000
 2249SOL    HW118610   2.287   4.603  10.712  0.0000  0.0000  0.0000
 2249SOL    HW218611   2.422   4.673  10.712  0.0000  0.0000  0.0000
 2249SOL     MW18612   2.374   4.601  10.700  0.0000  0.0000  0.0000
 2250SOL     OW18613   2.369   6.490  10.445  0.0000  0.0000  0.0000
 2250SOL    HW118614   2.427   6.565  10.433  0.0000  0.0000  0.0000
 2250SOL    HW218615   2.305   6.497  10.375  0.0000  0.0000  0.0000
 2250SOL     MW18616   2.368   6.500  10.435  0.0000  0.0000  0.0000
 2251SOL     OW18617   3.598   3.044  14.073  0.0000  0.0000  0.0000
 2251SOL    HW118618   3.550   3.024  14.154  0.0000  0.0000  0.0000
 2251SOL    HW218619   3.656   2.968  14.061  0.0000  0.0000  0.0000
 2251SOL     MW18620   3.599   3.031  14.082  0.0000  0.0000  0.0000
 2252SOL     OW18621   2.510   4.812  10.045  0.0000  0.0000  0.0000
 2252SOL    HW118622   2.485   4.856  10.127  0.0000  0.0000  0.0000
 2252SOL    HW218623   2.551   4.730  10.073  0.0000  0.0000  0.0000
 2252SOL     MW18624   2.512   4.807  10.060  0.0000  0.0000  0.0000
 2253SOL     OW18625   1.725   5.573  14.285  0.0000  0.0000  0.0000
 2253SOL    HW118626   1.662   5.548  14.352  0.0000  0.0000  0.0000
 2253SOL    HW218627   1.811   5.554  14.324  0.0000  0.0000  0.0000
 2253SOL     MW18628   1.728   5.567  14.299  0.0000  0.0000  0.0000
 2254SOL     OW18629   2.474   6.127  11.719  0.0000  0.0000  0.0000
 2254SOL    HW118630   2.465   6.147  11.626  0.0000  0.0000  0.0000
 2254SOL    HW218631   2.560   6.162  11.742  0.0000  0.0000  0.0000
 2254SOL     MW18632   2.484   6.134  11.710  0.0000  0.0000  0.0000
 2255SOL     OW18633   3.279   5.745  10.564  0.0000  0.0000  0.0000
 2255SOL    HW118634   3.329   5.826  10.558  0.0000  0.0000  0.0000
 2255SOL    HW218635   3.197   5.764  10.519  0.0000  0.0000  0.0000
 2255SOL     MW18636   3.275   5.758  10.557  0.0000  0.0000  0.0000
 2256SOL     OW18637   0.509   3.236   9.816  0.0000  0.0000  0.0000
 2256SOL    HW118638   0.524   3.270   9.904  0.0000  0.0000  0.0000
 2256SOL    HW218639   0.435   3.176   9.826  0.0000  0.0000  0.0000
 2256SOL     MW18640   0.501   3.233   9.829  0.0000  0.0000  0.0000
 2257SOL     OW18641   0.122   2.822  13.397  0.0000  0.0000  0.0000
 2257SOL    HW118642   0.112   2.900  13.343  0.0000  0.0000  0.0000
 2257SOL    HW218643   0.033   2.792  13.413  0.0000  0.0000  0.0000
 2257SOL     MW18644   0.109   2.829  13.392  0.0000  0.0000  0.0000
 2258SOL     OW18645   2.472   3.884  14.336  0.0000  0.0000  0.0000
 2258SOL    HW118646   2.544   3.945  14.354  0.0000  0.0000  0.0000
 2258SOL    HW218647   2.438   3.912  14.251  0.0000  0.0000  0.0000
 2258SOL     MW18648   2.477   3.896  14.327  0.0000  0.0000  0.0000
 2259SOL     OW18649   1.286   6.055  14.412  0.0000  0.0000  0.0000
 2259SOL    HW118650   1.363   6.109  14.394  0.0000  0.0000  0.0000
 2259SOL    HW218651   1.225   6.077  14.341  0.0000  0.0000  0.0000
 2259SOL     MW18652   1.288   6.065  14.400  0.0000  0.0000  0.0000
 2260SOL     OW18653   0.852   5.337  12.160  0.0000  0.0000  0.0000
 2260SOL    HW118654   0.783   5.283  12.121  0.0000  0.0000  0.0000
 2260SOL    HW218655   0.930   5.317  12.108  0.0000  0.0000  0.0000
 2260SOL     MW18656   0.853   5.327  12.148  0.0000  0.0000  0.0000
 2261SOL     OW18657   0.093   6.367  13.146  0.0000  0.0000  0.0000
 2261SOL    HW118658   0.051   6.405  13.223  0.0000  0.0000  0.0000
 2261SOL    HW218659   0.144   6.293  13.180  0.0000  0.0000  0.0000
 2261SOL     MW18660   0.094   6.362  13.160  0.0000  0.0000  0.0000
 2262SOL     OW18661   1.179   6.995  14.085  0.0000  0.0000  0.0000
 2262SOL    HW118662   1.222   6.938  14.022  0.0000  0.0000  0.0000
 2262SOL    HW218663   1.090   7.005  14.053  0.0000  0.0000  0.0000
 2262SOL     MW18664   1.173   6.989  14.072  0.0000  0.0000  0.0000
 2263SOL     OW18665   1.500   3.151  14.094  0.0000  0.0000  0.0000
 2263SOL    HW118666   1.474   3.213  14.162  0.0000  0.0000  0.0000
 2263SOL    HW218667   1.425   3.091  14.087  0.0000  0.0000  0.0000
 2263SOL     MW18668   1.487   3.151  14.102  0.0000  0.0000  0.0000
 2264SOL     OW18669   0.395   4.668  10.942  0.0000  0.0000  0.0000
 2264SOL    HW118670   0.442   4.735  10.892  0.0000  0.0000  0.0000
 2264SOL    HW218671   0.323   4.641  10.885  0.0000  0.0000  0.0000
 2264SOL     MW18672   0.391   4.673  10.928  0.0000  0.0000  0.0000
 2265SOL     OW18673   0.351   3.656  11.280  0.0000  0.0000  0.0000
 2265SOL    HW118674   0.391   3.597  11.344  0.0000  0.0000  0.0000
 2265SOL    HW218675   0.418   3.668  11.213  0.0000  0.0000  0.0000
 2265SOL     MW18676   0.365   3.650  11.280  0.0000  0.0000  0.0000
 2266SOL     OW18677   0.884   7.178  14.411  0.0000  0.0000  0.0000
 2266SOL    HW118678   0.814   7.238  14.437  0.0000  0.0000  0.0000
 2266SOL    HW218679   0.844   7.124  14.343  0.0000  0.0000  0.0000
 2266SOL     MW18680   0.869   7.178  14.405  0.0000  0.0000  0.0000
 2267SOL     OW18681   0.955   5.203  12.412  0.0000  0.0000  0.0000
 2267SOL    HW118682   1.049   5.222  12.418  0.0000  0.0000  0.0000
 2267SOL    HW218683   0.932   5.227  12.322  0.0000  0.0000  0.0000
 2267SOL     MW18684   0.964   5.209  12.401  0.0000  0.0000  0.0000
 2268SOL     OW18685   3.408   5.436   9.754  0.0000  0.0000  0.0000
 2268SOL    HW118686   3.338   5.448   9.689  0.0000  0.0000  0.0000
 2268SOL    HW218687   3.485   5.476   9.714  0.0000  0.0000  0.0000
 2268SOL     MW18688   3.409   5.443   9.740  0.0000  0.0000  0.0000
 2269SOL     OW18689   3.123   3.170  10.649  0.0000  0.0000  0.0000
 2269SOL    HW118690   3.113   3.099  10.712  0.0000  0.0000  0.0000
 2269SOL    HW218691   3.162   3.128  10.572  0.0000  0.0000  0.0000
 2269SOL     MW18692   3.127   3.155  10.647  0.0000  0.0000  0.0000
 2270SOL     OW18693   2.247   5.255  13.845  0.0000  0.0000  0.0000
 2270SOL    HW118694   2.273   5.224  13.759  0.0000  0.0000  0.0000
 2270SOL    HW218695   2.276   5.186  13.905  0.0000  0.0000  0.0000
 2270SOL     MW18696   2.254   5.242  13.842  0.0000  0.0000  0.0000
 2271SOL     OW18697   0.271   3.865  11.439  0.0000  0.0000  0.0000
 2271SOL    HW118698   0.285   3.801  11.368  0.0000  0.0000  0.0000
 2271SOL    HW218699   0.359   3.893  11.463  0.0000  0.0000  0.0000
 2271SOL     MW18700   0.284   3.860  11.433  0.0000  0.0000  0.0000
 2272SOL     OW18701   4.262   6.645  13.325  0.0000  0.0000  0.0000
 2272SOL    HW118702   4.246   6.732  13.289  0.0000  0.0000  0.0000
 2272SOL    HW218703   4.327   6.606  13.267  0.0000  0.0000  0.0000
 2272SOL     MW18704   4.268   6.651  13.313  0.0000  0.0000  0.0000
 2273SOL     OW18705   2.639   5.340  14.265  0.0000  0.0000  0.0000
 2273SOL    HW118706   2.651   5.344  14.170  0.0000  0.0000  0.0000
 2273SOL    HW218707   2.673   5.254  14.290  0.0000  0.0000  0.0000
 2273SOL     MW18708   2.645   5.329  14.256  0.0000  0.0000  0.0000
 2274SOL     OW18709   3.566   6.994  13.976  0.0000  0.0000  0.0000
 2274SOL    HW118710   3.585   6.924  13.913  0.0000  0.0000  0.0000
 2274SOL    HW218711   3.652   7.026  14.004  0.0000  0.0000  0.0000
 2274SOL     MW18712   3.580   6.989  13.972  0.0000  0.0000  0.0000
 2275SOL     OW18713   0.132   6.857  13.141  0.0000  0.0000  0.0000
 2275SOL    HW118714   0.227   6.854  13.142  0.0000  0.0000  0.0000
 2275SOL    HW218715   0.110   6.902  13.060  0.0000  0.0000  0.0000
 2275SOL     MW18716   0.142   6.863  13.131  0.0000  0.0000  0.0000
 2276SOL     OW18717   4.014   2.741   9.953  0.0000  0.0000  0.0000
 2276SOL    HW118718   4.065   2.818   9.976  0.0000  0.0000  0.0000
 2276SOL    HW218719   3.923   2.769   9.960  0.0000  0.0000  0.0000
 2276SOL     MW18720   4.008   2.755   9.957  0.0000  0.0000  0.0000
 2277SOL     OW18721   1.404   3.747  12.333  0.0000  0.0000  0.0000
 2277SOL    HW118722   1.349   3.794  12.270  0.0000  0.0000  0.0000
 2277SOL    HW218723   1.442   3.676  12.282  0.0000  0.0000  0.0000
 2277SOL     MW18724   1.402   3.744  12.318  0.0000  0.0000  0.0000
 2278SOL     OW18725   0.101   3.654  12.864  0.0000  0.0000  0.0000
 2278SOL    HW118726   0.024   3.599  12.873  0.0000  0.0000  0.0000
 2278SOL    HW218727   0.067   3.744  12.862  0.0000  0.0000  0.0000
 2278SOL     MW18728   0.087   3.659  12.865  0.0000  0.0000  0.0000
 2279SOL     OW18729   0.904   5.384  11.093  0.0000  0.0000  0.0000
 2279SOL    HW118730   0.868   5.324  11.027  0.0000  0.0000  0.0000
 2279SOL    HW218731   0.962   5.442  11.043  0.0000  0.0000  0.0000
 2279SOL     MW18732   0.907   5.384  11.077  0.0000  0.0000  0.0000
 2280SOL     OW18733   1.643   3.439  11.787  0.0000  0.0000  0.0000
 2280SOL    HW118734   1.549   3.444  11.771  0.0000  0.0000  0.0000
 2280SOL    HW218735   1.656   3.354  11.830  0.0000  0.0000  0.0000
 2280SOL     MW18736   1.632   3.428  11.790  0.0000  0.0000  0.0000
 2281SOL     OW18737   1.612   3.215  12.203  0.0000  0.0000  0.0000
 2281SOL    HW118738   1.671   3.235  12.275  0.0000  0.0000  0.0000
 2281SOL    HW218739   1.555   3.146  12.236  0.0000  0.0000  0.0000
 2281SOL     MW18740   1.612   3.209  12.217  0.0000  0.0000  0.0000
 2282SOL     OW18741   0.713   5.214  12.551  0.0000  0.0000  0.0000
 2282SOL    HW118742   0.668   5.136  12.519  0.0000  0.0000  0.0000
 2282SOL    HW218743   0.802   5.206  12.516  0.0000  0.0000  0.0000
 2282SOL     MW18744   0.719   5.203  12.542  0.0000  0.0000  0.0000
 2283SOL     OW18745   0.692   6.299  12.320  0.0000  0.0000  0.0000
 2283SOL    HW118746   0.761   6.365  12.328  0.0000  0.0000  0.0000
 2283SOL    HW218747   0.613   6.344  12.349  0.0000  0.0000  0.0000
 2283SOL     MW18748   0.691   6.314  12.325  0.0000  0.0000  0.0000
 2284SOL     OW18749   1.346   2.964  11.984  0.0000  0.0000  0.0000
 2284SOL    HW118750   1.423   2.910  11.965  0.0000  0.0000  0.0000
 2284SOL    HW218751   1.363   3.000  12.071  0.0000  0.0000  0.0000
 2284SOL     MW18752   1.358   2.962  11.993  0.0000  0.0000  0.0000
 2285SOL     OW18753   2.049   3.875  11.392  0.0000  0.0000  0.0000
 2285SOL    HW118754   2.007   3.790  11.406  0.0000  0.0000  0.0000
 2285SOL    HW218755   2.128   3.871  11.444  0.0000  0.0000  0.0000
 2285SOL     MW18756   2.054   3.863  11.401  0.0000  0.0000  0.0000
 2286SOL     OW18757   4.469   3.644  12.825  0.0000  0.0000  0.0000
 2286SOL    HW118758   4.403   3.669  12.890  0.0000  0.0000  0.0000
 2286SOL    HW218759   4.485   3.724  12.775  0.0000  0.0000  0.0000
 2286SOL     MW18760   4.462   3.658  12.827  0.0000  0.0000  0.0000
 2287SOL     OW18761   0.641   2.621  11.768  0.0000  0.0000  0.0000
 2287SOL    HW118762   0.673   2.596  11.855  0.0000  0.0000  0.0000
 2287SOL    HW218763   0.713   2.600  11.709  0.0000  0.0000  0.0000
 2287SOL     MW18764   0.655   2.615  11.772  0.0000  0.0000  0.0000
 2288SOL     OW18765   1.103   6.827  11.989  0.0000  0.0000  0.0000
 2288SOL    HW118766   1.038   6.767  12.026  0.0000  0.0000  0.0000
 2288SOL    HW218767   1.165   6.842  12.059  0.0000  0.0000  0.0000
 2288SOL     MW18768   1.102   6.821  12.003  0.0000  0.0000  0.0000
 2289SOL     OW18769   1.141   3.302  11.336  0.0000  0.0000  0.0000
 2289SOL    HW118770   1.171   3.221  11.377  0.0000  0.0000  0.0000
 2289SOL    HW218771   1.089   3.273  11.261  0.0000  0.0000  0.0000
 2289SOL     MW18772   1.138   3.287  11.331  0.0000  0.0000  0.0000
 2290SOL     OW18773   0.917   5.675  11.312  0.0000  0.0000  0.0000
 2290SOL    HW118774   0.892   5.623  11.389  0.0000  0.0000  0.0000
 2290SOL    HW218775   0.888   5.764  11.333  0.0000  0.0000  0.0000
 2290SOL     MW18776   0.910   5.680  11.325  0.0000  0.0000  0.0000
 2291SOL     OW18777   4.583   3.787  12.586  0.0000  0.0000  0.0000
 2291SOL    HW118778   4.596   3.750  12.499  0.0000  0.0000  0.0000
 2291SOL    HW218779   4.663   3.836  12.605  0.0000  0.0000  0.0000
 2291SOL     MW18780   4.595   3.789  12.577  0.0000  0.0000  0.0000
 2292SOL     OW18781   0.739   4.504  14.343  0.0000  0.0000  0.0000
 2292SOL    HW118782   0.739   4.457  14.260  0.0000  0.0000  0.0000
 2292SOL    HW218783   0.700   4.589  14.323  0.0000  0.0000  0.0000
 2292SOL     MW18784   0.734   4.509  14.330  0.0000  0.0000  0.0000
 2293SOL     OW18785   2.911   3.024  11.942  0.0000  0.0000  0.0000
 2293SOL    HW118786   2.878   3.030  11.852  0.0000  0.0000  0.0000
 2293SOL    HW218787   2.858   3.088  11.990  0.0000  0.0000  0.0000
 2293SOL     MW18788   2.899   3.033  11.936  0.0000  0.0000  0.0000
 2294SOL     OW18789   4.270   3.914  13.103  0.0000  0.0000  0.0000
 2294SOL    HW118790   4.276   3.838  13.045  0.0000  0.0000  0.0000
 2294SOL    HW218791   4.336   3.899  13.170  0.0000  0.0000  0.0000
 2294SOL     MW18792   4.279   3.902  13.104  0.0000  0.0000  0.0000
 2295SOL     OW18793   4.556   2.925  12.353  0.0000  0.0000  0.0000
 2295SOL    HW118794   4.550   3.014  12.389  0.0000  0.0000  0.0000
 2295SOL    HW218795   4.489   2.876  12.401  0.0000  0.0000  0.0000
 2295SOL     MW18796   4.546   2.930  12.364  0.0000  0.0000  0.0000
 2296SOL     OW18797   0.065   5.109  12.221  0.0000  0.0000  0.0000
 2296SOL    HW118798   0.089   5.034  12.275  0.0000  0.0000  0.0000
 2296SOL    HW218799  -0.031   5.104  12.214  0.0000  0.0000  0.0000
 2296SOL     MW18800   0.055   5.098  12.227  0.0000  0.0000  0.0000
 2297SOL     OW18801   1.368   3.487  11.775  0.0000  0.0000  0.0000
 2297SOL    HW118802   1.352   3.393  11.776  0.0000  0.0000  0.0000
 2297SOL    HW218803   1.331   3.517  11.691  0.0000  0.0000  0.0000
 2297SOL     MW18804   1.361   3.479  11.764  0.0000  0.0000  0.0000
 2298SOL     OW18805   1.338   3.843  11.410  0.0000  0.0000  0.0000
 2298SOL    HW118806   1.288   3.891  11.344  0.0000  0.0000  0.0000
 2298SOL    HW218807   1.404   3.906  11.439  0.0000  0.0000  0.0000
 2298SOL     MW18808   1.340   3.858  11.405  0.0000  0.0000  0.0000
 2299SOL     OW18809   0.697   3.831  12.873  0.0000  0.0000  0.0000
 2299SOL    HW118810   0.686   3.741  12.904  0.0000  0.0000  0.0000
 2299SOL    HW218811   0.755   3.871  12.938  0.0000  0.0000  0.0000
 2299SOL     MW18812   0.703   3.824  12.886  0.0000  0.0000  0.0000
 2300SOL     OW18813   1.060   3.001  12.027  0.0000  0.0000  0.0000
 2300SOL    HW118814   1.051   2.968  11.938  0.0000  0.0000  0.0000
 2300SOL    HW218815   1.150   2.981  12.052  0.0000  0.0000  0.0000
 2300SOL     MW18816   1.071   2.994  12.019  0.0000  0.0000  0.0000
 2301SOL     OW18817   0.632   3.518  12.670  0.0000  0.0000  0.0000
 2301SOL    HW118818   0.649   3.512  12.764  0.0000  0.0000  0.0000
 2301SOL    HW218819   0.547   3.562  12.663  0.0000  0.0000  0.0000
 2301SOL     MW18820   0.623   3.523  12.682  0.0000  0.0000  0.0000
 2302SOL     OW18821   1.034   5.097  11.567  0.0000  0.0000  0.0000
 2302SOL    HW118822   1.020   5.138  11.482  0.0000  0.0000  0.0000
 2302SOL    HW218823   0.956   5.120  11.618  0.0000  0.0000  0.0000
 2302SOL     MW18824   1.021   5.105  11.563  0.0000  0.0000  0.0000
 2303SOL     OW18825   1.564   7.085  14.566  0.0000  0.0000  0.0000
 2303SOL    HW118826   1.540   7.173  14.596  0.0000  0.0000  0.0000
 2303SOL    HW218827   1.539   7.083  14.474  0.0000  0.0000  0.0000
 2303SOL     MW18828   1.558   7.096  14.558  0.0000  0.0000  0.0000
 2304SOL     OW18829   0.670   5.510  12.559  0.0000  0.0000  0.0000
 2304SOL    HW118830   0.695   5.544  12.474  0.0000  0.0000  0.0000
 2304SOL    HW218831   0.670   5.415  12.548  0.0000  0.0000  0.0000
 2304SOL     MW18832   0.673   5.502  12.547  0.0000  0.0000  0.0000
 2305SOL     OW18833   2.072   5.413   9.862  0.0000  0.0000  0.0000
 2305SOL    HW118834   1.977   5.426   9.861  0.0000  0.0000  0.0000
 2305SOL    HW218835   2.088   5.361   9.941  0.0000  0.0000  0.0000
 2305SOL     MW18836   2.061   5.408   9.872  0.0000  0.0000  0.0000
 2306SOL     OW18837   0.589   3.578  12.961  0.0000  0.0000  0.0000
 2306SOL    HW118838   0.506   3.626  12.953  0.0000  0.0000  0.0000
 2306SOL    HW218839   0.564   3.493  12.998  0.0000  0.0000  0.0000
 2306SOL     MW18840   0.575   3.573  12.965  0.0000  0.0000  0.0000
 2307SOL     OW18841   1.127   6.004  12.031  0.0000  0.0000  0.0000
 2307SOL    HW118842   1.213   6.045  12.020  0.0000  0.0000  0.0000
 2307SOL    HW218843   1.128   5.930  11.970  0.0000  0.0000  0.0000
 2307SOL     MW18844   1.139   6.000  12.021  0.0000  0.0000  0.0000
 2308SOL     OW18845   0.448   3.101  11.886  0.0000  0.0000  0.0000
 2308SOL    HW118846   0.501   3.029  11.853  0.0000  0.0000  0.0000
 2308SOL    HW218847   0.410   3.068  11.968  0.0000  0.0000  0.0000
 2308SOL     MW18848   0.450   3.087  11.892  0.0000  0.0000  0.0000
 2309SOL     OW18849   4.616   2.711  11.696  0.0000  0.0000  0.0000
 2309SOL    HW118850   4.676   2.744  11.629  0.0000  0.0000  0.0000
 2309SOL    HW218851   4.590   2.625  11.664  0.0000  0.0000  0.0000
 2309SOL     MW18852   4.620   2.704  11.683  0.0000  0.0000  0.0000
 2310SOL     OW18853   0.286   4.786  13.994  0.0000  0.0000  0.0000
 2310SOL    HW118854   0.334   4.869  13.997  0.0000  0.0000  0.0000
 2310SOL    HW218855   0.314   4.740  14.073  0.0000  0.0000  0.0000
 2310SOL     MW18856   0.296   4.791  14.005  0.0000  0.0000  0.0000
 2311SOL     OW18857   0.599   2.601  13.872  0.0000  0.0000  0.0000
 2311SOL    HW118858   0.675   2.567  13.825  0.0000  0.0000  0.0000
 2311SOL    HW218859   0.616   2.695  13.880  0.0000  0.0000  0.0000
 2311SOL     MW18860   0.612   2.609  13.867  0.0000  0.0000  0.0000
 2312SOL     OW18861   2.985   2.860  14.343  0.0000  0.0000  0.0000
 2312SOL    HW118862   2.924   2.836  14.412  0.0000  0.0000  0.0000
 2312SOL    HW218863   2.959   2.807  14.268  0.0000  0.0000  0.0000
 2312SOL     MW18864   2.974   2.850  14.342  0.0000  0.0000  0.0000
 2313SOL     OW18865   1.980   4.468  14.311  0.0000  0.0000  0.0000
 2313SOL    HW118866   1.979   4.487  14.217  0.0000  0.0000  0.0000
 2313SOL    HW218867   2.017   4.547  14.351  0.0000  0.0000  0.0000
 2313SOL     MW18868   1.984   4.481  14.304  0.0000  0.0000  0.0000
 2314SOL     OW18869   0.347   3.054  10.604  0.0000  0.0000  0.0000
 2314SOL    HW118870   0.424   3.089  10.559  0.0000  0.0000  0.0000
 2314SOL    HW218871   0.336   2.966  10.567  0.0000  0.0000  0.0000
 2314SOL     MW18872   0.355   3.047  10.593  0.0000  0.0000  0.0000
 2315SOL     OW18873   4.047   6.475  12.782  0.0000  0.0000  0.0000
 2315SOL    HW118874   4.057   6.569  12.767  0.0000  0.0000  0.0000
 2315SOL    HW218875   4.124   6.435  12.741  0.0000  0.0000  0.0000
 2315SOL     MW18876   4.058   6.482  12.774  0.0000  0.0000  0.0000
 2316SOL     OW18877   1.294   3.231  11.819  0.0000  0.0000  0.0000
 2316SOL    HW118878   1.339   3.174  11.881  0.0000  0.0000  0.0000
 2316SOL    HW218879   1.203   3.201  11.819  0.0000  0.0000  0.0000
 2316SOL     MW18880   1.288   3.220  11.827  0.0000  0.0000  0.0000
 2317SOL     OW18881   4.651   6.764  13.882  0.0000  0.0000  0.0000
 2317SOL    HW118882   4.691   6.850  13.893  0.0000  0.0000  0.0000
 2317SOL    HW218883   4.723   6.702  13.897  0.0000  0.0000  0.0000
 2317SOL     MW18884   4.666   6.767  13.885  0.0000  0.0000  0.0000
 2318SOL     OW18885   3.996   6.067   9.660  0.0000  0.0000  0.0000
 2318SOL    HW118886   3.976   6.139   9.600  0.0000  0.0000  0.0000
 2318SOL    HW218887   3.914   6.054   9.708  0.0000  0.0000  0.0000
 2318SOL     MW18888   3.982   6.075   9.658  0.0000  0.0000  0.0000
 2319SOL     OW18889   1.779   3.584  13.213  0.0000  0.0000  0.0000
 2319SOL    HW118890   1.792   3.634  13.132  0.0000  0.0000  0.0000
 2319SOL    HW218891   1.688   3.555  13.208  0.0000  0.0000  0.0000
 2319SOL     MW18892   1.769   3.587  13.202  0.0000  0.0000  0.0000
 2320SOL     OW18893   1.797   5.466   9.822  0.0000  0.0000  0.0000
 2320SOL    HW118894   1.800   5.511   9.738  0.0000  0.0000  0.0000
 2320SOL    HW218895   1.712   5.422   9.822  0.0000  0.0000  0.0000
 2320SOL     MW18896   1.786   5.466   9.811  0.0000  0.0000  0.0000
 2321SOL     OW18897   0.291   4.208  13.647  0.0000  0.0000  0.0000
 2321SOL    HW118898   0.274   4.205  13.741  0.0000  0.0000  0.0000
 2321SOL    HW218899   0.205   4.201  13.607  0.0000  0.0000  0.0000
 2321SOL     MW18900   0.277   4.207  13.654  0.0000  0.0000  0.0000
 2322SOL     OW18901   0.368   4.503  13.528  0.0000  0.0000  0.0000
 2322SOL    HW118902   0.444   4.449  13.550  0.0000  0.0000  0.0000
 2322SOL    HW218903   0.296   4.441  13.517  0.0000  0.0000  0.0000
 2322SOL     MW18904   0.368   4.488  13.530  0.0000  0.0000  0.0000
 2323SOL     OW18905   1.208   6.013   9.834  0.0000  0.0000  0.0000
 2323SOL    HW118906   1.295   5.984   9.863  0.0000  0.0000  0.0000
 2323SOL    HW218907   1.227   6.067   9.757  0.0000  0.0000  0.0000
 2323SOL     MW18908   1.222   6.016   9.827  0.0000  0.0000  0.0000
 2324SOL     OW18909   0.979   4.527   9.960  0.0000  0.0000  0.0000
 2324SOL    HW118910   0.963   4.445  10.007  0.0000  0.0000  0.0000
 2324SOL    HW218911   1.047   4.571  10.011  0.0000  0.0000  0.0000
 2324SOL     MW18912   0.986   4.522   9.973  0.0000  0.0000  0.0000
 2325SOL     OW18913   1.166   3.238  13.731  0.0000  0.0000  0.0000
 2325SOL    HW118914   1.174   3.147  13.705  0.0000  0.0000  0.0000
 2325SOL    HW218915   1.242   3.255  13.786  0.0000  0.0000  0.0000
 2325SOL     MW18916   1.177   3.229  13.735  0.0000  0.0000  0.0000
 2326SOL     OW18917   0.583   5.857  14.292  0.0000  0.0000  0.0000
 2326SOL    HW118918   0.587   5.935  14.348  0.0000  0.0000  0.0000
 2326SOL    HW218919   0.562   5.891  14.206  0.0000  0.0000  0.0000
 2326SOL     MW18920   0.581   5.872  14.288  0.0000  0.0000  0.0000
 2327SOL     OW18921   2.344   5.286  14.242  0.0000  0.0000  0.0000
 2327SOL    HW118922   2.438   5.282  14.261  0.0000  0.0000  0.0000
 2327SOL    HW218923   2.331   5.373  14.204  0.0000  0.0000  0.0000
 2327SOL     MW18924   2.355   5.297  14.240  0.0000  0.0000  0.0000
 2328SOL     OW18925   2.109   6.929  13.916  0.0000  0.0000  0.0000
 2328SOL    HW118926   2.151   7.011  13.889  0.0000  0.0000  0.0000
 2328SOL    HW218927   2.076   6.948  14.004  0.0000  0.0000  0.0000
 2328SOL     MW18928   2.110   6.942  13.924  0.0000  0.0000  0.0000
 2329SOL     OW18929   0.044   3.809   9.765  0.0000  0.0000  0.0000
 2329SOL    HW118930  -0.051   3.810   9.782  0.0000  0.0000  0.0000
 2329SOL    HW218931   0.056   3.740   9.701  0.0000  0.0000  0.0000
 2329SOL     MW18932   0.033   3.800   9.759  0.0000  0.0000  0.0000
 2330SOL     OW18933   3.173   6.699   9.825  0.0000  0.0000  0.0000
 2330SOL    HW118934   3.094   6.652   9.855  0.0000  0.0000  0.0000
 2330SOL    HW218935   3.245   6.641   9.849  0.0000  0.0000  0.0000
 2330SOL     MW18936   3.172   6.685   9.832  0.0000  0.0000  0.0000
 2331SOL     OW18937   0.675   2.895  13.891  0.0000  0.0000  0.0000
 2331SOL    HW118938   0.754   2.885  13.943  0.0000  0.0000  0.0000
 2331SOL    HW218939   0.699   2.956  13.821  0.0000  0.0000  0.0000
 2331SOL     MW18940   0.688   2.902  13.889  0.0000  0.0000  0.0000
 2332SOL     OW18941   2.169   3.373  11.406  0.0000  0.0000  0.0000
 2332SOL    HW118942   2.191   3.458  11.370  0.0000  0.0000  0.0000
 2332SOL    HW218943   2.151   3.318  11.329  0.0000  0.0000  0.0000
 2332SOL     MW18944   2.169   3.377  11.391  0.0000  0.0000  0.0000
 2333SOL     OW18945   4.447   3.523   9.733  0.0000  0.0000  0.0000
 2333SOL    HW118946   4.467   3.614   9.752  0.0000  0.0000  0.0000
 2333SOL    HW218947   4.385   3.526   9.660  0.0000  0.0000  0.0000
 2333SOL     MW18948   4.442   3.535   9.726  0.0000  0.0000  0.0000
 2334SOL     OW18949   0.317   2.792  10.541  0.0000  0.0000  0.0000
 2334SOL    HW118950   0.385   2.785  10.608  0.0000  0.0000  0.0000
 2334SOL    HW218951   0.241   2.748  10.578  0.0000  0.0000  0.0000
 2334SOL     MW18952   0.316   2.786  10.554  0.0000  0.0000  0.0000
 2335SOL     OW18953   3.627   6.338  12.841  0.0000  0.0000  0.0000
 2335SOL    HW118954   3.641   6.339  12.936  0.0000  0.0000  0.0000
 2335SOL    HW218955   3.688   6.403  12.806  0.0000  0.0000  0.0000
 2335SOL     MW18956   3.637   6.347  12.849  0.0000  0.0000  0.0000
 2336SOL     OW18957   3.280   6.964  13.834  0.0000  0.0000  0.0000
 2336SOL    HW118958   3.336   6.980  13.910  0.0000  0.0000  0.0000
 2336SOL    HW218959   3.283   6.869  13.822  0.0000  0.0000  0.0000
 2336SOL     MW18960   3.288   6.954  13.842  0.0000  0.0000  0.0000
 2337SOL     OW18961   4.281   6.340  12.677  0.0000  0.0000  0.0000
 2337SOL    HW118962   4.309   6.285  12.604  0.0000  0.0000  0.0000
 2337SOL    HW218963   4.307   6.291  12.755  0.0000  0.0000  0.0000
 2337SOL     MW18964   4.288   6.326  12.678  0.0000  0.0000  0.0000
 2338SOL     OW18965   4.013   6.721  13.591  0.0000  0.0000  0.0000
 2338SOL    HW118966   3.970   6.659  13.651  0.0000  0.0000  0.0000
 2338SOL    HW218967   3.964   6.712  13.509  0.0000  0.0000  0.0000
 2338SOL     MW18968   4.000   6.711  13.588  0.0000  0.0000  0.0000
 2339SOL     OW18969   1.882   3.070   9.784  0.0000  0.0000  0.0000
 2339SOL    HW118970   1.862   2.990   9.734  0.0000  0.0000  0.0000
 2339SOL    HW218971   1.863   3.141   9.722  0.0000  0.0000  0.0000
 2339SOL     MW18972   1.877   3.069   9.769  0.0000  0.0000  0.0000
 2340SOL     OW18973   0.949   4.002  11.402  0.0000  0.0000  0.0000
 2340SOL    HW118974   1.012   3.974  11.469  0.0000  0.0000  0.0000
 2340SOL    HW218975   0.945   4.097  11.412  0.0000  0.0000  0.0000
 2340SOL     MW18976   0.957   4.011  11.412  0.0000  0.0000  0.0000
 2341SOL     OW18977   3.979   2.665  11.134  0.0000  0.0000  0.0000
 2341SOL    HW118978   3.985   2.631  11.045  0.0000  0.0000  0.0000
 2341SOL    HW218979   4.067   2.694  11.155  0.0000  0.0000  0.0000
 2341SOL     MW18980   3.991   2.665  11.125  0.0000  0.0000  0.0000
 2342SOL     OW18981   3.409   5.886   9.716  0.0000  0.0000  0.0000
 2342SOL    HW118982   3.398   5.860   9.808  0.0000  0.0000  0.0000
 2342SOL    HW218983   3.322   5.879   9.679  0.0000  0.0000  0.0000
 2342SOL     MW18984   3.396   5.882   9.724  0.0000  0.0000  0.0000
 2343SOL     OW18985   1.164   5.325  11.672  0.0000  0.0000  0.0000
 2343SOL    HW118986   1.135   5.249  11.622  0.0000  0.0000  0.0000
 2343SOL    HW218987   1.086   5.350  11.723  0.0000  0.0000  0.0000
 2343SOL     MW18988   1.150   5.318  11.672  0.0000  0.0000  0.0000
 2344SOL     OW18989   2.323   2.983  11.346  0.0000  0.0000  0.0000
 2344SOL    HW118990   2.387   3.046  11.313  0.0000  0.0000  0.0000
 2344SOL    HW218991   2.375   2.908  11.375  0.0000  0.0000  0.0000
 2344SOL     MW18992   2.338   2.982  11.346  0.0000  0.0000  0.0000
 2345SOL     OW18993   3.410   5.794   9.974  0.0000  0.0000  0.0000
 2345SOL    HW118994   3.456   5.709   9.976  0.0000  0.0000  0.0000
 2345SOL    HW218995   3.318   5.770   9.968  0.0000  0.0000  0.0000
 2345SOL     MW18996   3.404   5.779   9.974  0.0000  0.0000  0.0000
 2346SOL     OW18997   0.471   5.715  12.571  0.0000  0.0000  0.0000
 2346SOL    HW118998   0.521   5.781  12.524  0.0000  0.0000  0.0000
 2346SOL    HW218999   0.530   5.639  12.575  0.0000  0.0000  0.0000
 2346SOL     MW19000   0.486   5.713  12.566  0.0000  0.0000  0.0000
 2347SOL     OW19001   0.321   4.821  11.165  0.0000  0.0000  0.0000
 2347SOL    HW119002   0.338   4.774  11.083  0.0000  0.0000  0.0000
 2347SOL    HW219003   0.255   4.886  11.142  0.0000  0.0000  0.0000
 2347SOL     MW19004   0.314   4.823  11.151  0.0000  0.0000  0.0000
 2348SOL     OW19005   1.543   5.497  11.027  0.0000  0.0000  0.0000
 2348SOL    HW119006   1.571   5.406  11.041  0.0000  0.0000  0.0000
 2348SOL    HW219007   1.477   5.513  11.095  0.0000  0.0000  0.0000
 2348SOL     MW19008   1.538   5.487  11.038  0.0000  0.0000  0.0000
 2349SOL     OW19009   1.113   2.787  14.094  0.0000  0.0000  0.0000
 2349SOL    HW119010   1.183   2.849  14.076  0.0000  0.0000  0.0000
 2349SOL    HW219011   1.067   2.824  14.169  0.0000  0.0000  0.0000
 2349SOL     MW19012   1.116   2.800  14.102  0.0000  0.0000  0.0000
 2350SOL     OW19013   1.812   5.900  11.308  0.0000  0.0000  0.0000
 2350SOL    HW119014   1.794   5.813  11.272  0.0000  0.0000  0.0000
 2350SOL    HW219015   1.750   5.908  11.381  0.0000  0.0000  0.0000
 2350SOL     MW19016   1.801   5.889  11.313  0.0000  0.0000  0.0000
 2351SOL     OW19017   1.751   5.621  11.163  0.0000  0.0000  0.0000
 2351SOL    HW119018   1.727   5.576  11.082  0.0000  0.0000  0.0000
 2351SOL    HW219019   1.844   5.600  11.175  0.0000  0.0000  0.0000
 2351SOL     MW19020   1.760   5.612  11.154  0.0000  0.0000  0.0000
 2352SOL     OW19021   2.507   2.707  13.763  0.0000  0.0000  0.0000
 2352SOL    HW119022   2.453   2.741  13.834  0.0000  0.0000  0.0000
 2352SOL    HW219023   2.499   2.612  13.770  0.0000  0.0000  0.0000
 2352SOL     MW19024   2.499   2.699  13.774  0.0000  0.0000  0.0000
 2353SOL     OW19025   0.079   4.656  11.246  0.0000  0.0000  0.0000
 2353SOL    HW119026   0.020   4.719  11.206  0.0000  0.0000  0.0000
 2353SOL    HW219027   0.167   4.691  11.230  0.0000  0.0000  0.0000
 2353SOL     MW19028   0.083   4.669  11.238  0.0000  0.0000  0.0000
 2354SOL     OW19029   3.167   4.612  10.265  0.0000  0.0000  0.0000
 2354SOL    HW119030   3.178   4.678  10.197  0.0000  0.0000  0.0000
 2354SOL    HW219031   3.250   4.566  10.269  0.0000  0.0000  0.0000
 2354SOL     MW19032   3.179   4.615  10.257  0.0000  0.0000  0.0000
 2355SOL     OW19033   4.585   7.211  13.783  0.0000  0.0000  0.0000
 2355SOL    HW119034   4.603   7.304  13.765  0.0000  0.0000  0.0000
 2355SOL    HW219035   4.493   7.200  13.762  0.0000  0.0000  0.0000
 2355SOL     MW19036   4.575   7.222  13.778  0.0000  0.0000  0.0000
 2356SOL     OW19037   0.426   5.024  14.421  0.0000  0.0000  0.0000
 2356SOL    HW119038   0.331   5.037  14.418  0.0000  0.0000  0.0000
 2356SOL    HW219039   0.452   5.021  14.329  0.0000  0.0000  0.0000
 2356SOL     MW19040   0.417   5.025  14.408  0.0000  0.0000  0.0000
 2357SOL     OW19041   3.490   3.571  10.226  0.0000  0.0000  0.0000
 2357SOL    HW119042   3.541   3.572  10.307  0.0000  0.0000  0.0000
 2357SOL    HW219043   3.550   3.607  10.160  0.0000  0.0000  0.0000
 2357SOL     MW19044   3.505   3.576  10.228  0.0000  0.0000  0.0000
 2358SOL     OW19045   2.624   6.752  14.109  0.0000  0.0000  0.0000
 2358SOL    HW119046   2.554   6.813  14.085  0.0000  0.0000  0.0000
 2358SOL    HW219047   2.702   6.808  14.116  0.0000  0.0000  0.0000
 2358SOL     MW19048   2.625   6.768  14.107  0.0000  0.0000  0.0000
 2359SOL     OW19049   1.715   3.576  12.002  0.0000  0.0000  0.0000
 2359SOL    HW119050   1.704   3.512  11.931  0.0000  0.0000  0.0000
 2359SOL    HW219051   1.785   3.634  11.971  0.0000  0.0000  0.0000
 2359SOL     MW19052   1.723   3.575  11.988  0.0000  0.0000  0.0000
 2360SOL     OW19053   3.845   6.942  11.035  0.0000  0.0000  0.0000
 2360SOL    HW119054   3.875   7.014  10.979  0.0000  0.0000  0.0000
 2360SOL    HW219055   3.760   6.917  10.999  0.0000  0.0000  0.0000
 2360SOL     MW19056   3.838   6.949  11.023  0.0000  0.0000  0.0000
 2361SOL     OW19057   1.613   6.385  11.392  0.0000  0.0000  0.0000
 2361SOL    HW119058   1.600   6.480  11.393  0.0000  0.0000  0.0000
 2361SOL    HW219059   1.594   6.358  11.482  0.0000  0.0000  0.0000
 2361SOL     MW19060   1.609   6.394  11.404  0.0000  0.0000  0.0000
 2362SOL     OW19061   0.953   5.928  10.779  0.0000  0.0000  0.0000
 2362SOL    HW119062   0.889   5.902  10.845  0.0000  0.0000  0.0000
 2362SOL    HW219063   0.991   6.009  10.812  0.0000  0.0000  0.0000
 2362SOL     MW19064   0.949   5.935  10.792  0.0000  0.0000  0.0000
 2363SOL     OW19065   4.659   6.434  13.683  0.0000  0.0000  0.0000
 2363SOL    HW119066   4.720   6.498  13.721  0.0000  0.0000  0.0000
 2363SOL    HW219067   4.662   6.452  13.589  0.0000  0.0000  0.0000
 2363SOL     MW19068   4.668   6.445  13.676  0.0000  0.0000  0.0000
 2364SOL     OW19069   0.346   3.790  13.871  0.0000  0.0000  0.0000
 2364SOL    HW119070   0.439   3.805  13.889  0.0000  0.0000  0.0000
 2364SOL    HW219071   0.335   3.815  13.779  0.0000  0.0000  0.0000
 2364SOL     MW19072   0.357   3.795  13.861  0.0000  0.0000  0.0000
 2365SOL     OW19073   1.814   4.813  14.335  0.0000  0.0000  0.0000
 2365SOL    HW119074   1.764   4.889  14.308  0.0000  0.0000  0.0000
 2365SOL    HW219075   1.806   4.751  14.262  0.0000  0.0000  0.0000
 2365SOL     MW19076   1.807   4.815  14.322  0.0000  0.0000  0.0000
 2366SOL     OW19077   4.000   5.156  11.423  0.0000  0.0000  0.0000
 2366SOL    HW119078   3.931   5.122  11.480  0.0000  0.0000  0.0000
 2366SOL    HW219079   3.971   5.243  11.399  0.0000  0.0000  0.0000
 2366SOL     MW19080   3.987   5.163  11.428  0.0000  0.0000  0.0000
 2367SOL     OW19081   4.299   4.335  10.721  0.0000  0.0000  0.0000
 2367SOL    HW119082   4.254   4.256  10.689  0.0000  0.0000  0.0000
 2367SOL    HW219083   4.307   4.391  10.643  0.0000  0.0000  0.0000
 2367SOL     MW19084   4.294   4.332  10.706  0.0000  0.0000  0.0000
 2368SOL     OW19085   0.533   6.153   9.676  0.0000  0.0000  0.0000
 2368SOL    HW119086   0.575   6.193   9.600  0.0000  0.0000  0.0000
 2368SOL    HW219087   0.501   6.227   9.727  0.0000  0.0000  0.0000
 2368SOL     MW19088   0.534   6.168   9.673  0.0000  0.0000  0.0000
 2369SOL     OW19089   2.034   6.033  11.451  0.0000  0.0000  0.0000
 2369SOL    HW119090   2.029   5.975  11.527  0.0000  0.0000  0.0000
 2369SOL    HW219091   1.959   6.009  11.397  0.0000  0.0000  0.0000
 2369SOL     MW19092   2.024   6.022  11.454  0.0000  0.0000  0.0000
 2370SOL     OW19093   1.057   6.176  10.856  0.0000  0.0000  0.0000
 2370SOL    HW119094   1.088   6.251  10.804  0.0000  0.0000  0.0000
 2370SOL    HW219095   1.119   6.171  10.929  0.0000  0.0000  0.0000
 2370SOL     MW19096   1.069   6.185  10.859  0.0000  0.0000  0.0000
 2371SOL     OW19097   0.837   2.628  11.556  0.0000  0.0000  0.0000
 2371SOL    HW119098   0.918   2.654  11.599  0.0000  0.0000  0.0000
 2371SOL    HW219099   0.840   2.672  11.471  0.0000  0.0000  0.0000
 2371SOL     MW19100   0.848   2.637  11.550  0.0000  0.0000  0.0000
 2372SOL     OW19101   2.113   3.041  10.739  0.0000  0.0000  0.0000
 2372SOL    HW119102   2.094   3.062  10.830  0.0000  0.0000  0.0000
 2372SOL    HW219103   2.207   3.052  10.730  0.0000  0.0000  0.0000
 2372SOL     MW19104   2.123   3.045  10.750  0.0000  0.0000  0.0000
 2373SOL     OW19105   0.102   4.539  10.939  0.0000  0.0000  0.0000
 2373SOL    HW119106   0.078   4.554  11.031  0.0000  0.0000  0.0000
 2373SOL    HW219107   0.022   4.558  10.890  0.0000  0.0000  0.0000
 2373SOL     MW19108   0.088   4.543  10.945  0.0000  0.0000  0.0000
 2374SOL     OW19109   1.765   6.080  11.129  0.0000  0.0000  0.0000
 2374SOL    HW119110   1.788   6.020  11.200  0.0000  0.0000  0.0000
 2374SOL    HW219111   1.761   6.025  11.051  0.0000  0.0000  0.0000
 2374SOL     MW19112   1.768   6.065  11.128  0.0000  0.0000  0.0000
 2375SOL     OW19113   1.312   6.562  10.214  0.0000  0.0000  0.0000
 2375SOL    HW119114   1.349   6.537  10.129  0.0000  0.0000  0.0000
 2375SOL    HW219115   1.294   6.656  10.206  0.0000  0.0000  0.0000
 2375SOL     MW19116   1.315   6.571  10.202  0.0000  0.0000  0.0000
 2376SOL     OW19117   4.424   5.051  11.314  0.0000  0.0000  0.0000
 2376SOL    HW119118   4.366   5.005  11.375  0.0000  0.0000  0.0000
 2376SOL    HW219119   4.480   4.983  11.278  0.0000  0.0000  0.0000
 2376SOL     MW19120   4.424   5.036  11.317  0.0000  0.0000  0.0000
 2377SOL     OW19121   1.946   3.863  14.428  0.0000  0.0000  0.0000
 2377SOL    HW119122   1.955   3.773  14.397  0.0000  0.0000  0.0000
 2377SOL    HW219123   1.902   3.855  14.512  0.0000  0.0000  0.0000
 2377SOL     MW19124   1.942   3.850  14.435  0.0000  0.0000  0.0000
 2378SOL     OW19125   1.580   5.638  12.614  0.0000  0.0000  0.0000
 2378SOL    HW119126   1.656   5.696  12.617  0.0000  0.0000  0.0000
 2378SOL    HW219127   1.505   5.698  12.606  0.0000  0.0000  0.0000
 2378SOL     MW19128   1.580   5.654  12.613  0.0000  0.0000  0.0000
 2379SOL     OW19129   1.241   3.894  12.150  0.0000  0.0000  0.0000
 2379SOL    HW119130   1.207   3.965  12.096  0.0000  0.0000  0.0000
 2379SOL    HW219131   1.258   3.823  12.088  0.0000  0.0000  0.0000
 2379SOL     MW19132   1.239   3.894  12.135  0.0000  0.0000  0.0000
 2380SOL     OW19133   0.910   5.154  12.733  0.0000  0.0000  0.0000
 2380SOL    HW119134   0.839   5.186  12.678  0.0000  0.0000  0.0000
 2380SOL    HW219135   0.891   5.062  12.747  0.0000  0.0000  0.0000
 2380SOL     MW19136   0.898   5.146  12.727  0.0000  0.0000  0.0000
 2381SOL     OW19137   0.169   4.143  12.174  0.0000  0.0000  0.0000
 2381SOL    HW119138   0.124   4.223  12.203  0.0000  0.0000  0.0000
 2381SOL    HW219139   0.106   4.099  12.117  0.0000  0.0000  0.0000
 2381SOL     MW19140   0.155   4.148  12.170  0.0000  0.0000  0.0000
 2382SOL     OW19141   4.612   5.374  13.225  0.0000  0.0000  0.0000
 2382SOL    HW119142   4.671   5.428  13.278  0.0000  0.0000  0.0000
 2382SOL    HW219143   4.624   5.406  13.136  0.0000  0.0000  0.0000
 2382SOL     MW19144   4.621   5.385  13.221  0.0000  0.0000  0.0000
 2383SOL     OW19145   1.721   2.807  10.806  0.0000  0.0000  0.0000
 2383SOL    HW119146   1.812   2.817  10.778  0.0000  0.0000  0.0000
 2383SOL    HW219147   1.677   2.885  10.774  0.0000  0.0000  0.0000
 2383SOL     MW19148   1.727   2.818  10.798  0.0000  0.0000  0.0000
 2384SOL     OW19149   1.217   6.884  14.317  0.0000  0.0000  0.0000
 2384SOL    HW119150   1.206   6.922  14.230  0.0000  0.0000  0.0000
 2384SOL    HW219151   1.164   6.939  14.375  0.0000  0.0000  0.0000
 2384SOL     MW19152   1.209   6.896  14.313  0.0000  0.0000  0.0000
 2385SOL     OW19153   1.255   4.746  12.383  0.0000  0.0000  0.0000
 2385SOL    HW119154   1.217   4.834  12.382  0.0000  0.0000  0.0000
 2385SOL    HW219155   1.350   4.762  12.392  0.0000  0.0000  0.0000
 2385SOL     MW19156   1.263   4.760  12.384  0.0000  0.0000  0.0000
 2386SOL     OW19157   0.139   6.453  11.502  0.0000  0.0000  0.0000
 2386SOL    HW119158   0.100   6.392  11.564  0.0000  0.0000  0.0000
 2386SOL    HW219159   0.156   6.401  11.424  0.0000  0.0000  0.0000
 2386SOL     MW19160   0.136   6.438  11.500  0.0000  0.0000  0.0000
 2387SOL     OW19161   1.304   5.130  10.687  0.0000  0.0000  0.0000
 2387SOL    HW119162   1.370   5.199  10.678  0.0000  0.0000  0.0000
 2387SOL    HW219163   1.354   5.053  10.716  0.0000  0.0000  0.0000
 2387SOL     MW19164   1.320   5.129  10.690  0.0000  0.0000  0.0000
 2388SOL     OW19165   0.391   5.119  12.763  0.0000  0.0000  0.0000
 2388SOL    HW119166   0.464   5.175  12.789  0.0000  0.0000  0.0000
 2388SOL    HW219167   0.319   5.180  12.744  0.0000  0.0000  0.0000
 2388SOL     MW19168   0.391   5.135  12.764  0.0000  0.0000  0.0000
 2389SOL     OW19169   4.292   6.210  13.522  0.0000  0.0000  0.0000
 2389SOL    HW119170   4.340   6.258  13.589  0.0000  0.0000  0.0000
 2389SOL    HW219171   4.287   6.120  13.554  0.0000  0.0000  0.0000
 2389SOL     MW19172   4.297   6.204  13.535  0.0000  0.0000  0.0000
 2390SOL     OW19173   1.125   3.646  14.410  0.0000  0.0000  0.0000
 2390SOL    HW119174   1.201   3.632  14.467  0.0000  0.0000  0.0000
 2390SOL    HW219175   1.080   3.722  14.447  0.0000  0.0000  0.0000
 2390SOL     MW19176   1.129   3.654  14.422  0.0000  0.0000  0.0000
 2391SOL     OW19177   0.793   6.231  11.579  0.0000  0.0000  0.0000
 2391SOL    HW119178   0.774   6.212  11.671  0.0000  0.0000  0.0000
 2391SOL    HW219179   0.763   6.322  11.567  0.0000  0.0000  0.0000
 2391SOL     MW19180   0.787   6.241  11.590  0.0000  0.0000  0.0000
 2392SOL     OW19181   0.839   5.544  11.977  0.0000  0.0000  0.0000
 2392SOL    HW119182   0.930   5.567  11.961  0.0000  0.0000  0.0000
 2392SOL    HW219183   0.843   5.468  12.035  0.0000  0.0000  0.0000
 2392SOL     MW19184   0.851   5.537  11.983  0.0000  0.0000  0.0000
 2393SOL     OW19185   0.079   4.797  11.484  0.0000  0.0000  0.0000
 2393SOL    HW119186   0.034   4.759  11.560  0.0000  0.0000  0.0000
 2393SOL    HW219187   0.077   4.728  11.418  0.0000  0.0000  0.0000
 2393SOL     MW19188   0.073   4.783  11.485  0.0000  0.0000  0.0000
 2394SOL     OW19189   0.043   5.085  11.456  0.0000  0.0000  0.0000
 2394SOL    HW119190   0.037   4.989  11.458  0.0000  0.0000  0.0000
 2394SOL    HW219191  -0.026   5.112  11.395  0.0000  0.0000  0.0000
 2394SOL     MW19192   0.033   5.076  11.448  0.0000  0.0000  0.0000
 2395SOL     OW19193   4.126   6.413  12.342  0.0000  0.0000  0.0000
 2395SOL    HW119194   4.102   6.451  12.257  0.0000  0.0000  0.0000
 2395SOL    HW219195   4.043   6.385  12.380  0.0000  0.0000  0.0000
 2395SOL     MW19196   4.112   6.415  12.336  0.0000  0.0000  0.0000
 2396SOL     OW19197   1.432   6.743  11.761  0.0000  0.0000  0.0000
 2396SOL    HW119198   1.484   6.743  11.842  0.0000  0.0000  0.0000
 2396SOL    HW219199   1.452   6.827  11.720  0.0000  0.0000  0.0000
 2396SOL     MW19200   1.442   6.754  11.766  0.0000  0.0000  0.0000
 2397SOL     OW19201   0.866   5.190  13.006  0.0000  0.0000  0.0000
 2397SOL    HW119202   0.877   5.187  12.911  0.0000  0.0000  0.0000
 2397SOL    HW219203   0.854   5.283  13.025  0.0000  0.0000  0.0000
 2397SOL     MW19204   0.866   5.202  12.996  0.0000  0.0000  0.0000
 2398SOL     OW19205   1.005   7.102  12.003  0.0000  0.0000  0.0000
 2398SOL    HW119206   1.038   7.143  12.083  0.0000  0.0000  0.0000
 2398SOL    HW219207   1.047   7.016  12.001  0.0000  0.0000  0.0000
 2398SOL     MW19208   1.015   7.096  12.014  0.0000  0.0000  0.0000
 2399SOL     OW19209   1.039   4.889  13.018  0.0000  0.0000  0.0000
 2399SOL    HW119210   1.133   4.872  13.011  0.0000  0.0000  0.0000
 2399SOL    HW219211   1.033   4.981  13.044  0.0000  0.0000  0.0000
 2399SOL     MW19212   1.051   4.899  13.020  0.0000  0.0000  0.0000
 2400SOL     OW19213   0.327   2.996  13.891  0.0000  0.0000  0.0000
 2400SOL    HW119214   0.335   2.958  13.803  0.0000  0.0000  0.0000
 2400SOL    HW219215   0.355   2.925  13.949  0.0000  0.0000  0.0000
 2400SOL     MW19216   0.332   2.982  13.887  0.0000  0.0000  0.0000
 2401SOL     OW19217   1.560   4.456  13.477  0.0000  0.0000  0.0000
 2401SOL    HW119218   1.481   4.403  13.461  0.0000  0.0000  0.0000
 2401SOL    HW219219   1.526   4.541  13.503  0.0000  0.0000  0.0000
 2401SOL     MW19220   1.545   4.460  13.478  0.0000  0.0000  0.0000
 2402SOL     OW19221   1.826   4.353  11.901  0.0000  0.0000  0.0000
 2402SOL    HW119222   1.850   4.313  11.817  0.0000  0.0000  0.0000
 2402SOL    HW219223   1.909   4.383  11.938  0.0000  0.0000  0.0000
 2402SOL     MW19224   1.840   4.352  11.895  0.0000  0.0000  0.0000
 2403SOL     OW19225   1.339   3.676  11.983  0.0000  0.0000  0.0000
 2403SOL    HW119226   1.367   3.624  12.057  0.0000  0.0000  0.0000
 2403SOL    HW219227   1.359   3.623  11.906  0.0000  0.0000  0.0000
 2403SOL     MW19228   1.345   3.662  11.982  0.0000  0.0000  0.0000
 2404SOL     OW19229   4.341   3.640  13.065  0.0000  0.0000  0.0000
 2404SOL    HW119230   4.314   3.662  13.155  0.0000  0.0000  0.0000
 2404SOL    HW219231   4.389   3.558  13.074  0.0000  0.0000  0.0000
 2404SOL     MW19232   4.344   3.632  13.078  0.0000  0.0000  0.0000
 2405SOL     OW19233   0.843   5.892  11.646  0.0000  0.0000  0.0000
 2405SOL    HW119234   0.860   5.976  11.688  0.0000  0.0000  0.0000
 2405SOL    HW219235   0.819   5.913  11.556  0.0000  0.0000  0.0000
 2405SOL     MW19236   0.842   5.906  11.640  0.0000  0.0000  0.0000
 2406SOL     OW19237   0.930   5.478  11.577  0.0000  0.0000  0.0000
 2406SOL    HW119238   0.918   5.411  11.511  0.0000  0.0000  0.0000
 2406SOL    HW219239   0.857   5.466  11.637  0.0000  0.0000  0.0000
 2406SOL     MW19240   0.919   5.468  11.576  0.0000  0.0000  0.0000
 2407SOL     OW19241   1.000   4.920  12.488  0.0000  0.0000  0.0000
 2407SOL    HW119242   0.930   4.905  12.551  0.0000  0.0000  0.0000
 2407SOL    HW219243   0.980   5.004  12.448  0.0000  0.0000  0.0000
 2407SOL     MW19244   0.988   4.929  12.491  0.0000  0.0000  0.0000
 2408SOL     OW19245   1.669   2.616  12.090  0.0000  0.0000  0.0000
 2408SOL    HW119246   1.635   2.534  12.056  0.0000  0.0000  0.0000
 2408SOL    HW219247   1.763   2.614  12.071  0.0000  0.0000  0.0000
 2408SOL     MW19248   1.677   2.605  12.083  0.0000  0.0000  0.0000
 2409SOL     OW19249   0.844   5.994  11.409  0.0000  0.0000  0.0000
 2409SOL    HW119250   0.843   6.083  11.444  0.0000  0.0000  0.0000
 2409SOL    HW219251   0.924   5.991  11.355  0.0000  0.0000  0.0000
 2409SOL     MW19252   0.855   6.005  11.406  0.0000  0.0000  0.0000
 2410SOL     OW19253   3.027   3.836   9.632  0.0000  0.0000  0.0000
 2410SOL    HW119254   3.038   3.784   9.712  0.0000  0.0000  0.0000
 2410SOL    HW219255   2.936   3.865   9.635  0.0000  0.0000  0.0000
 2410SOL     MW19256   3.016   3.833   9.643  0.0000  0.0000  0.0000
 2411SOL     OW19257   3.555   2.691  10.332  0.0000  0.0000  0.0000
 2411SOL    HW119258   3.467   2.655  10.324  0.0000  0.0000  0.0000
 2411SOL    HW219259   3.607   2.640  10.270  0.0000  0.0000  0.0000
 2411SOL     MW19260   3.551   2.679  10.323  0.0000  0.0000  0.0000
 2412SOL     OW19261   4.618   4.146  14.392  0.0000  0.0000  0.0000
 2412SOL    HW119262   4.575   4.069  14.355  0.0000  0.0000  0.0000
 2412SOL    HW219263   4.712   4.127  14.386  0.0000  0.0000  0.0000
 2412SOL     MW19264   4.625   4.133  14.386  0.0000  0.0000  0.0000
 2413SOL     OW19265   3.730   6.688  13.573  0.0000  0.0000  0.0000
 2413SOL    HW119266   3.698   6.598  13.563  0.0000  0.0000  0.0000
 2413SOL    HW219267   3.698   6.715  13.658  0.0000  0.0000  0.0000
 2413SOL     MW19268   3.722   6.680  13.583  0.0000  0.0000  0.0000
 2414SOL     OW19269   1.374   3.315  13.885  0.0000  0.0000  0.0000
 2414SOL    HW119270   1.427   3.266  13.949  0.0000  0.0000  0.0000
 2414SOL    HW219271   1.406   3.405  13.891  0.0000  0.0000  0.0000
 2414SOL     MW19272   1.385   3.320  13.894  0.0000  0.0000  0.0000
 2415SOL     OW19273   3.145   2.966  10.842  0.0000  0.0000  0.0000
 2415SOL    HW119274   3.084   2.902  10.876  0.0000  0.0000  0.0000
 2415SOL    HW219275   3.219   2.914  10.810  0.0000  0.0000  0.0000
 2415SOL     MW19276   3.147   2.951  10.842  0.0000  0.0000  0.0000
 2416SOL     OW19277   0.453   3.892  14.289  0.0000  0.0000  0.0000
 2416SOL    HW119278   0.380   3.846  14.330  0.0000  0.0000  0.0000
 2416SOL    HW219279   0.421   3.916  14.202  0.0000  0.0000  0.0000
 2416SOL     MW19280   0.439   3.889  14.283  0.0000  0.0000  0.0000
 2417SOL     OW19281   1.830   2.705  14.125  0.0000  0.0000  0.0000
 2417SOL    HW119282   1.918   2.681  14.156  0.0000  0.0000  0.0000
 2417SOL    HW219283   1.846   2.755  14.045  0.0000  0.0000  0.0000
 2417SOL     MW19284   1.844   2.708  14.118  0.0000  0.0000  0.0000
 2418SOL     OW19285   3.379   3.061   9.811  0.0000  0.0000  0.0000
 2418SOL    HW119286   3.341   3.090   9.729  0.0000  0.0000  0.0000
 2418SOL    HW219287   3.463   3.023   9.787  0.0000  0.0000  0.0000
 2418SOL     MW19288   3.385   3.060   9.797  0.0000  0.0000  0.0000
 2419SOL     OW19289   3.366   2.794  10.735  0.0000  0.0000  0.0000
 2419SOL    HW119290   3.360   2.700  10.717  0.0000  0.0000  0.0000
 2419SOL    HW219291   3.400   2.800  10.824  0.0000  0.0000  0.0000
 2419SOL     MW19292   3.370   2.782  10.744  0.0000  0.0000  0.0000
 2420SOL     OW19293   0.100   5.879  12.493  0.0000  0.0000  0.0000
 2420SOL    HW119294   0.018   5.925  12.510  0.0000  0.0000  0.0000
 2420SOL    HW219295   0.163   5.918  12.554  0.0000  0.0000  0.0000
 2420SOL     MW19296   0.097   5.890  12.503  0.0000  0.0000  0.0000
 2421SOL     OW19297   2.405   5.576  13.608  0.0000  0.0000  0.0000
 2421SOL    HW119298   2.423   5.557  13.700  0.0000  0.0000  0.0000
 2421SOL    HW219299   2.353   5.656  13.609  0.0000  0.0000  0.0000
 2421SOL     MW19300   2.401   5.584  13.620  0.0000  0.0000  0.0000
 2422SOL     OW19301   1.916   4.910   9.658  0.0000  0.0000  0.0000
 2422SOL    HW119302   1.880   4.821   9.656  0.0000  0.0000  0.0000
 2422SOL    HW219303   1.967   4.917   9.578  0.0000  0.0000  0.0000
 2422SOL     MW19304   1.918   4.899   9.647  0.0000  0.0000  0.0000
 2423SOL     OW19305   0.043   6.022   9.724  0.0000  0.0000  0.0000
 2423SOL    HW119306   0.017   5.973   9.802  0.0000  0.0000  0.0000
 2423SOL    HW219307  -0.034   6.021   9.668  0.0000  0.0000  0.0000
 2423SOL     MW19308   0.029   6.015   9.727  0.0000  0.0000  0.0000
 2424SOL     OW19309   0.971   4.288  14.379  0.0000  0.0000  0.0000
 2424SOL    HW119310   0.904   4.287  14.311  0.0000  0.0000  0.0000
 2424SOL    HW219311   0.973   4.379  14.409  0.0000  0.0000  0.0000
 2424SOL     MW19312   0.963   4.300  14.374  0.0000  0.0000  0.0000
 2425SOL     OW19313   1.123   4.117  11.635  0.0000  0.0000  0.0000
 2425SOL    HW119314   1.120   4.022  11.644  0.0000  0.0000  0.0000
 2425SOL    HW219315   1.179   4.133  11.559  0.0000  0.0000  0.0000
 2425SOL     MW19316   1.130   4.107  11.626  0.0000  0.0000  0.0000
 2426SOL     OW19317   1.088   5.435  14.221  0.0000  0.0000  0.0000
 2426SOL    HW119318   1.004   5.444  14.177  0.0000  0.0000  0.0000
 2426SOL    HW219319   1.133   5.365  14.173  0.0000  0.0000  0.0000
 2426SOL     MW19320   1.083   5.427  14.209  0.0000  0.0000  0.0000
 2427SOL     OW19321   0.771   5.252  14.032  0.0000  0.0000  0.0000
 2427SOL    HW119322   0.838   5.183  14.033  0.0000  0.0000  0.0000
 2427SOL    HW219323   0.690   5.206  14.050  0.0000  0.0000  0.0000
 2427SOL     MW19324   0.769   5.237  14.034  0.0000  0.0000  0.0000
 2428SOL     OW19325   0.595   4.012   9.785  0.0000  0.0000  0.0000
 2428SOL    HW119326   0.526   3.946   9.778  0.0000  0.0000  0.0000
 2428SOL    HW219327   0.674   3.962   9.804  0.0000  0.0000  0.0000
 2428SOL     MW19328   0.596   3.997   9.786  0.0000  0.0000  0.0000
 2429SOL     OW19329   1.641   3.092  10.283  0.0000  0.0000  0.0000
 2429SOL    HW119330   1.687   3.075  10.200  0.0000  0.0000  0.0000
 2429SOL    HW219331   1.647   3.187  10.295  0.0000  0.0000  0.0000
 2429SOL     MW19332   1.648   3.102  10.273  0.0000  0.0000  0.0000
 2430SOL     OW19333   1.374   5.808  14.215  0.0000  0.0000  0.0000
 2430SOL    HW119334   1.429   5.872  14.259  0.0000  0.0000  0.0000
 2430SOL    HW219335   1.428   5.774  14.144  0.0000  0.0000  0.0000
 2430SOL     MW19336   1.388   5.812  14.211  0.0000  0.0000  0.0000
 2431SOL     OW19337   3.857   4.430  10.037  0.0000  0.0000  0.0000
 2431SOL    HW119338   3.820   4.408   9.951  0.0000  0.0000  0.0000
 2431SOL    HW219339   3.947   4.396  10.033  0.0000  0.0000  0.0000
 2431SOL     MW19340   3.864   4.422  10.025  0.0000  0.0000  0.0000
 2432SOL     OW19341   0.522   5.135  14.153  0.0000  0.0000  0.0000
 2432SOL    HW119342   0.440   5.139  14.103  0.0000  0.0000  0.0000
 2432SOL    HW219343   0.521   5.214  14.206  0.0000  0.0000  0.0000
 2432SOL     MW19344   0.511   5.146  14.153  0.0000  0.0000  0.0000
 2433SOL     OW19345   2.805   2.608  10.080  0.0000  0.0000  0.0000
 2433SOL    HW119346   2.824   2.634  10.170  0.0000  0.0000  0.0000
 2433SOL    HW219347   2.739   2.671  10.050  0.0000  0.0000  0.0000
 2433SOL     MW19348   2.799   2.620  10.088  0.0000  0.0000  0.0000
 2434SOL     OW19349   0.534   4.620  13.918  0.0000  0.0000  0.0000
 2434SOL    HW119350   0.459   4.675  13.942  0.0000  0.0000  0.0000
 2434SOL    HW219351   0.604   4.682  13.897  0.0000  0.0000  0.0000
 2434SOL     MW19352   0.533   4.636  13.918  0.0000  0.0000  0.0000
 2435SOL     OW19353   3.257   6.423  13.885  0.0000  0.0000  0.0000
 2435SOL    HW119354   3.311   6.344  13.885  0.0000  0.0000  0.0000
 2435SOL    HW219355   3.202   6.414  13.963  0.0000  0.0000  0.0000
 2435SOL     MW19356   3.257   6.412  13.895  0.0000  0.0000  0.0000
 2436SOL     OW19357   3.898   6.623  11.240  0.0000  0.0000  0.0000
 2436SOL    HW119358   3.940   6.700  11.278  0.0000  0.0000  0.0000
 2436SOL    HW219359   3.899   6.558  11.310  0.0000  0.0000  0.0000
 2436SOL     MW19360   3.903   6.625  11.255  0.0000  0.0000  0.0000
 2437SOL     OW19361   3.334   3.891  10.282  0.0000  0.0000  0.0000
 2437SOL    HW119362   3.292   3.807  10.265  0.0000  0.0000  0.0000
 2437SOL    HW219363   3.263   3.955  10.280  0.0000  0.0000  0.0000
 2437SOL     MW19364   3.319   3.889  10.279  0.0000  0.0000  0.0000
 2438SOL     OW19365   4.498   5.699  14.404  0.0000  0.0000  0.0000
 2438SOL    HW119366   4.585   5.740  14.406  0.0000  0.0000  0.0000
 2438SOL    HW219367   4.465   5.709  14.493  0.0000  0.0000  0.0000
 2438SOL     MW19368   4.505   5.706  14.416  0.0000  0.0000  0.0000
 2439SOL     OW19369   0.092   3.050  13.256  0.0000  0.0000  0.0000
 2439SOL    HW119370   0.037   3.001  13.195  0.0000  0.0000  0.0000
 2439SOL    HW219371   0.040   3.128  13.277  0.0000  0.0000  0.0000
 2439SOL     MW19372   0.078   3.054  13.251  0.0000  0.0000  0.0000
 2440SOL     OW19373   0.787   4.610  12.799  0.0000  0.0000  0.0000
 2440SOL    HW119374   0.832   4.606  12.883  0.0000  0.0000  0.0000
 2440SOL    HW219375   0.726   4.536  12.801  0.0000  0.0000  0.0000
 2440SOL     MW19376   0.785   4.599  12.810  0.0000  0.0000  0.0000
 2441SOL     OW19377   3.271   4.624   9.709  0.0000  0.0000  0.0000
 2441SOL    HW119378   3.196   4.669   9.670  0.0000  0.0000  0.0000
 2441SOL    HW219379   3.338   4.625   9.641  0.0000  0.0000  0.0000
 2441SOL     MW19380   3.270   4.630   9.695  0.0000  0.0000  0.0000
 2442SOL     OW19381   2.904   5.012  10.345  0.0000  0.0000  0.0000
 2442SOL    HW119382   2.868   5.066  10.275  0.0000  0.0000  0.0000
 2442SOL    HW219383   2.929   5.075  10.413  0.0000  0.0000  0.0000
 2442SOL     MW19384   2.903   5.028  10.345  0.0000  0.0000  0.0000
 2443SOL     OW19385   0.887   6.267   9.773  0.0000  0.0000  0.0000
 2443SOL    HW119386   0.972   6.273   9.729  0.0000  0.0000  0.0000
 2443SOL    HW219387   0.896   6.192   9.831  0.0000  0.0000  0.0000
 2443SOL     MW19388   0.900   6.258   9.775  0.0000  0.0000  0.0000
 2444SOL     OW19389   1.400   5.590   9.800  0.0000  0.0000  0.0000
 2444SOL    HW119390   1.318   5.557   9.837  0.0000  0.0000  0.0000
 2444SOL    HW219391   1.374   5.634   9.720  0.0000  0.0000  0.0000
 2444SOL     MW19392   1.386   5.591   9.795  0.0000  0.0000  0.0000
 2445SOL     OW19393   2.369   2.731  14.481  0.0000  0.0000  0.0000
 2445SOL    HW119394   2.408   2.716  14.394  0.0000  0.0000  0.0000
 2445SOL    HW219395   2.395   2.820  14.503  0.0000  0.0000  0.0000
 2445SOL     MW19396   2.377   2.741  14.472  0.0000  0.0000  0.0000
 2446SOL     OW19397   4.223   3.485  13.807  0.0000  0.0000  0.0000
 2446SOL    HW119398   4.204   3.395  13.833  0.0000  0.0000  0.0000
 2446SOL    HW219399   4.265   3.524  13.884  0.0000  0.0000  0.0000
 2446SOL     MW19400   4.226   3.479  13.820  0.0000  0.0000  0.0000
 2447SOL     OW19401   0.601   2.890  11.797  0.0000  0.0000  0.0000
 2447SOL    HW119402   0.655   2.941  11.737  0.0000  0.0000  0.0000
 2447SOL    HW219403   0.620   2.799  11.776  0.0000  0.0000  0.0000
 2447SOL     MW19404   0.611   2.885  11.787  0.0000  0.0000  0.0000
 2448SOL     OW19405   1.218   5.669  14.559  0.0000  0.0000  0.0000
 2448SOL    HW119406   1.228   5.764  14.556  0.0000  0.0000  0.0000
 2448SOL    HW219407   1.176   5.646  14.476  0.0000  0.0000  0.0000
 2448SOL     MW19408   1.214   5.678  14.548  0.0000  0.0000  0.0000
 2449SOL     OW19409   2.601   3.439   9.911  0.0000  0.0000  0.0000
 2449SOL    HW119410   2.565   3.395   9.988  0.0000  0.0000  0.0000
 2449SOL    HW219411   2.560   3.394   9.836  0.0000  0.0000  0.0000
 2449SOL     MW19412   2.591   3.427   9.911  0.0000  0.0000  0.0000
 2450SOL     OW19413   1.002   3.691  10.460  0.0000  0.0000  0.0000
 2450SOL    HW119414   1.003   3.700  10.555  0.0000  0.0000  0.0000
 2450SOL    HW219415   0.955   3.609  10.444  0.0000  0.0000  0.0000
 2450SOL     MW19416   0.996   3.682  10.470  0.0000  0.0000  0.0000
 2451SOL     OW19417   3.731   4.135  10.004  0.0000  0.0000  0.0000
 2451SOL    HW119418   3.735   4.171  10.093  0.0000  0.0000  0.0000
 2451SOL    HW219419   3.683   4.052  10.014  0.0000  0.0000  0.0000
 2451SOL     MW19420   3.725   4.128  10.017  0.0000  0.0000  0.0000
 2452SOL     OW19421   2.115   2.635  14.182  0.0000  0.0000  0.0000
 2452SOL    HW119422   2.131   2.704  14.246  0.0000  0.0000  0.0000
 2452SOL    HW219423   2.165   2.560  14.214  0.0000  0.0000  0.0000
 2452SOL     MW19424   2.124   2.634  14.194  0.0000  0.0000  0.0000
 2453SOL     OW19425   4.387   6.358  13.735  0.0000  0.0000  0.0000
 2453SOL    HW119426   4.350   6.443  13.712  0.0000  0.0000  0.0000
 2453SOL    HW219427   4.481   6.374  13.741  0.0000  0.0000  0.0000
 2453SOL     MW19428   4.395   6.372  13.732  0.0000  0.0000  0.0000
 2454SOL     OW19429   0.181   7.070  11.178  0.0000  0.0000  0.0000
 2454SOL    HW119430   0.272   7.042  11.171  0.0000  0.0000  0.0000
 2454SOL    HW219431   0.131   6.988  11.173  0.0000  0.0000  0.0000
 2454SOL     MW19432   0.186   7.055  11.176  0.0000  0.0000  0.0000
 2455SOL     OW19433   1.262   6.766  11.121  0.0000  0.0000  0.0000
 2455SOL    HW119434   1.262   6.705  11.195  0.0000  0.0000  0.0000
 2455SOL    HW219435   1.295   6.714  11.048  0.0000  0.0000  0.0000
 2455SOL     MW19436   1.266   6.751  11.121  0.0000  0.0000  0.0000
 2456SOL     OW19437   2.731   7.018  13.183  0.0000  0.0000  0.0000
 2456SOL    HW119438   2.638   6.997  13.186  0.0000  0.0000  0.0000
 2456SOL    HW219439   2.757   7.024  13.275  0.0000  0.0000  0.0000
 2456SOL     MW19440   2.722   7.016  13.196  0.0000  0.0000  0.0000
 2457SOL     OW19441   3.458   2.677  11.632  0.0000  0.0000  0.0000
 2457SOL    HW119442   3.411   2.595  11.614  0.0000  0.0000  0.0000
 2457SOL    HW219443   3.468   2.679  11.727  0.0000  0.0000  0.0000
 2457SOL     MW19444   3.453   2.666  11.642  0.0000  0.0000  0.0000
 2458SOL     OW19445   2.198   6.770  10.070  0.0000  0.0000  0.0000
 2458SOL    HW119446   2.257   6.736  10.002  0.0000  0.0000  0.0000
 2458SOL    HW219447   2.120   6.797  10.023  0.0000  0.0000  0.0000
 2458SOL     MW19448   2.196   6.769  10.055  0.0000  0.0000  0.0000
 2459SOL     OW19449   4.494   6.022  11.067  0.0000  0.0000  0.0000
 2459SOL    HW119450   4.525   6.113  11.066  0.0000  0.0000  0.0000
 2459SOL    HW219451   4.456   6.009  10.980  0.0000  0.0000  0.0000
 2459SOL     MW19452   4.493   6.032  11.055  0.0000  0.0000  0.0000
 2460SOL     OW19453   4.106   2.629  11.515  0.0000  0.0000  0.0000
 2460SOL    HW119454   4.199   2.638  11.537  0.0000  0.0000  0.0000
 2460SOL    HW219455   4.106   2.594  11.426  0.0000  0.0000  0.0000
 2460SOL     MW19456   4.119   2.625  11.506  0.0000  0.0000  0.0000
 2461SOL     OW19457   0.887   5.797  10.553  0.0000  0.0000  0.0000
 2461SOL    HW119458   0.954   5.729  10.544  0.0000  0.0000  0.0000
 2461SOL    HW219459   0.904   5.837  10.638  0.0000  0.0000  0.0000
 2461SOL     MW19460   0.898   5.793  10.563  0.0000  0.0000  0.0000
 2462SOL     OW19461   0.790   6.803  12.414  0.0000  0.0000  0.0000
 2462SOL    HW119462   0.755   6.811  12.503  0.0000  0.0000  0.0000
 2462SOL    HW219463   0.757   6.880  12.368  0.0000  0.0000  0.0000
 2462SOL     MW19464   0.781   6.815  12.420  0.0000  0.0000  0.0000
 2463SOL     OW19465   2.072   5.639  11.160  0.0000  0.0000  0.0000
 2463SOL    HW119466   2.105   5.661  11.247  0.0000  0.0000  0.0000
 2463SOL    HW219467   2.052   5.723  11.120  0.0000  0.0000  0.0000
 2463SOL     MW19468   2.074   5.653  11.167  0.0000  0.0000  0.0000
 2464SOL     OW19469   0.213   3.220  11.760  0.0000  0.0000  0.0000
 2464SOL    HW119470   0.291   3.170  11.782  0.0000  0.0000  0.0000
 2464SOL    HW219471   0.231   3.308  11.794  0.0000  0.0000  0.0000
 2464SOL     MW19472   0.225   3.225  11.767  0.0000  0.0000  0.0000
 2465SOL     OW19473   0.989   6.117  12.230  0.0000  0.0000  0.0000
 2465SOL    HW119474   1.062   6.143  12.287  0.0000  0.0000  0.0000
 2465SOL    HW219475   1.031   6.068  12.160  0.0000  0.0000  0.0000
 2465SOL     MW19476   1.005   6.114  12.229  0.0000  0.0000  0.0000
 2466SOL     OW19477   0.062   7.011  10.208  0.0000  0.0000  0.0000
 2466SOL    HW119478   0.002   6.948  10.247  0.0000  0.0000  0.0000
 2466SOL    HW219479   0.029   7.026  10.119  0.0000  0.0000  0.0000
 2466SOL     MW19480   0.050   7.005  10.201  0.0000  0.0000  0.0000
 2467SOL     OW19481   1.093   4.463  13.061  0.0000  0.0000  0.0000
 2467SOL    HW119482   1.155   4.517  13.012  0.0000  0.0000  0.0000
 2467SOL    HW219483   1.016   4.518  13.072  0.0000  0.0000  0.0000
 2467SOL     MW19484   1.091   4.477  13.056  0.0000  0.0000  0.0000
 2468SOL     OW19485   1.165   6.524  13.246  0.0000  0.0000  0.0000
 2468SOL    HW119486   1.081   6.540  13.203  0.0000  0.0000  0.0000
 2468SOL    HW219487   1.198   6.445  13.205  0.0000  0.0000  0.0000
 2468SOL     MW19488   1.158   6.516  13.235  0.0000  0.0000  0.0000
 2469SOL     OW19489   1.502   6.737  13.017  0.0000  0.0000  0.0000
 2469SOL    HW119490   1.414   6.769  13.035  0.0000  0.0000  0.0000
 2469SOL    HW219491   1.494   6.690  12.934  0.0000  0.0000  0.0000
 2469SOL     MW19492   1.489   6.735  13.008  0.0000  0.0000  0.0000
 2470SOL     OW19493   1.570   6.368  12.061  0.0000  0.0000  0.0000
 2470SOL    HW119494   1.484   6.405  12.081  0.0000  0.0000  0.0000
 2470SOL    HW219495   1.591   6.401  11.974  0.0000  0.0000  0.0000
 2470SOL     MW19496   1.561   6.377  12.052  0.0000  0.0000  0.0000
 2471SOL     OW19497   0.477   5.839  11.357  0.0000  0.0000  0.0000
 2471SOL    HW119498   0.432   5.888  11.425  0.0000  0.0000  0.0000
 2471SOL    HW219499   0.491   5.752  11.395  0.0000  0.0000  0.0000
 2471SOL     MW19500   0.473   5.834  11.371  0.0000  0.0000  0.0000
 2472SOL     OW19501   3.208   5.746  13.960  0.0000  0.0000  0.0000
 2472SOL    HW119502   3.288   5.715  13.917  0.0000  0.0000  0.0000
 2472SOL    HW219503   3.186   5.677  14.022  0.0000  0.0000  0.0000
 2472SOL     MW19504   3.216   5.733  13.963  0.0000  0.0000  0.0000
 2473SOL     OW19505   0.924   3.630  13.840  0.0000  0.0000  0.0000
 2473SOL    HW119506   1.010   3.592  13.856  0.0000  0.0000  0.0000
 2473SOL    HW219507   0.864   3.577  13.893  0.0000  0.0000  0.0000
 2473SOL     MW19508   0.927   3.618  13.849  0.0000  0.0000  0.0000
 2474SOL     OW19509   2.498   3.203  11.998  0.0000  0.0000  0.0000
 2474SOL    HW119510   2.586   3.240  12.000  0.0000  0.0000  0.0000
 2474SOL    HW219511   2.440   3.279  12.005  0.0000  0.0000  0.0000
 2474SOL     MW19512   2.502   3.218  11.999  0.0000  0.0000  0.0000
 2475SOL     OW19513   2.417   6.056  10.316  0.0000  0.0000  0.0000
 2475SOL    HW119514   2.344   6.023  10.369  0.0000  0.0000  0.0000
 2475SOL    HW219515   2.446   6.134  10.362  0.0000  0.0000  0.0000
 2475SOL     MW19516   2.411   6.062  10.329  0.0000  0.0000  0.0000
 2476SOL     OW19517   0.020   6.236  11.638  0.0000  0.0000  0.0000
 2476SOL    HW119518   0.057   6.169  11.696  0.0000  0.0000  0.0000
 2476SOL    HW219519  -0.053   6.192  11.594  0.0000  0.0000  0.0000
 2476SOL     MW19520   0.015   6.221  11.640  0.0000  0.0000  0.0000
 2477SOL     OW19521   2.269   3.828   9.714  0.0000  0.0000  0.0000
 2477SOL    HW119522   2.216   3.855   9.789  0.0000  0.0000  0.0000
 2477SOL    HW219523   2.265   3.903   9.654  0.0000  0.0000  0.0000
 2477SOL     MW19524   2.261   3.842   9.716  0.0000  0.0000  0.0000
 2478SOL     OW19525   0.532   3.669   9.996  0.0000  0.0000  0.0000
 2478SOL    HW119526   0.468   3.699  10.060  0.0000  0.0000  0.0000
 2478SOL    HW219527   0.491   3.687   9.911  0.0000  0.0000  0.0000
 2478SOL     MW19528   0.518   3.676   9.993  0.0000  0.0000  0.0000
 2479SOL     OW19529   2.981   4.848  13.342  0.0000  0.0000  0.0000
 2479SOL    HW119530   2.969   4.928  13.292  0.0000  0.0000  0.0000
 2479SOL    HW219531   2.964   4.778  13.279  0.0000  0.0000  0.0000
 2479SOL     MW19532   2.977   4.849  13.327  0.0000  0.0000  0.0000
 2480SOL     OW19533   1.316   2.975   9.609  0.0000  0.0000  0.0000
 2480SOL    HW119534   1.270   2.892   9.599  0.0000  0.0000  0.0000
 2480SOL    HW219535   1.251   3.042   9.588  0.0000  0.0000  0.0000
 2480SOL     MW19536   1.302   2.973   9.605  0.0000  0.0000  0.0000
 2481SOL     OW19537   1.353   3.280  10.239  0.0000  0.0000  0.0000
 2481SOL    HW119538   1.288   3.220  10.274  0.0000  0.0000  0.0000
 2481SOL    HW219539   1.411   3.299  10.313  0.0000  0.0000  0.0000
 2481SOL     MW19540   1.352   3.274  10.253  0.0000  0.0000  0.0000
 2482SOL     OW19541   1.167   5.362   9.671  0.0000  0.0000  0.0000
 2482SOL    HW119542   1.108   5.287   9.678  0.0000  0.0000  0.0000
 2482SOL    HW219543   1.174   5.396   9.760  0.0000  0.0000  0.0000
 2482SOL     MW19544   1.160   5.357   9.684  0.0000  0.0000  0.0000
 2483SOL     OW19545   1.457   3.867  10.118  0.0000  0.0000  0.0000
 2483SOL    HW119546   1.362   3.871  10.108  0.0000  0.0000  0.0000
 2483SOL    HW219547   1.482   3.783  10.080  0.0000  0.0000  0.0000
 2483SOL     MW19548   1.448   3.857  10.112  0.0000  0.0000  0.0000
 2484SOL     OW19549   1.289   3.523  10.159  0.0000  0.0000  0.0000
 2484SOL    HW119550   1.237   3.564  10.228  0.0000  0.0000  0.0000
 2484SOL    HW219551   1.304   3.434  10.190  0.0000  0.0000  0.0000
 2484SOL     MW19552   1.284   3.517  10.172  0.0000  0.0000  0.0000
 2485SOL     OW19553   1.004   3.391   9.660  0.0000  0.0000  0.0000
 2485SOL    HW119554   1.080   3.366   9.712  0.0000  0.0000  0.0000
 2485SOL    HW219555   0.933   3.402   9.724  0.0000  0.0000  0.0000
 2485SOL     MW19556   1.004   3.389   9.676  0.0000  0.0000  0.0000
 2486SOL     OW19557   2.320   3.125  14.317  0.0000  0.0000  0.0000
 2486SOL    HW119558   2.359   3.178  14.388  0.0000  0.0000  0.0000
 2486SOL    HW219559   2.395   3.082  14.277  0.0000  0.0000  0.0000
 2486SOL     MW19560   2.335   3.127  14.321  0.0000  0.0000  0.0000
 2487SOL     OW19561   0.148   6.521  14.276  0.0000  0.0000  0.0000
 2487SOL    HW119562   0.088   6.585  14.314  0.0000  0.0000  0.0000
 2487SOL    HW219563   0.171   6.463  14.349  0.0000  0.0000  0.0000
 2487SOL     MW19564   0.143   6.522  14.291  0.0000  0.0000  0.0000
 2488SOL     OW19565   2.481   6.825  10.084  0.0000  0.0000  0.0000
 2488SOL    HW119566   2.483   6.766  10.159  0.0000  0.0000  0.0000
 2488SOL    HW219567   2.436   6.775  10.016  0.0000  0.0000  0.0000
 2488SOL     MW19568   2.476   6.811  10.085  0.0000  0.0000  0.0000
 2489SOL     OW19569   1.232   6.514   9.774  0.0000  0.0000  0.0000
 2489SOL    HW119570   1.247   6.542   9.684  0.0000  0.0000  0.0000
 2489SOL    HW219571   1.179   6.583   9.812  0.0000  0.0000  0.0000
 2489SOL     MW19572   1.227   6.527   9.767  0.0000  0.0000  0.0000
 2490SOL     OW19573   4.487   3.145  11.201  0.0000  0.0000  0.0000
 2490SOL    HW119574   4.483   3.050  11.203  0.0000  0.0000  0.0000
 2490SOL    HW219575   4.395   3.173  11.194  0.0000  0.0000  0.0000
 2490SOL     MW19576   4.474   3.136  11.200  0.0000  0.0000  0.0000
 2491SOL     OW19577   0.962   2.871  11.797  0.0000  0.0000  0.0000
 2491SOL    HW119578   0.906   2.851  11.872  0.0000  0.0000  0.0000
 2491SOL    HW219579   1.019   2.794  11.788  0.0000  0.0000  0.0000
 2491SOL     MW19580   0.962   2.858  11.806  0.0000  0.0000  0.0000
 2492SOL     OW19581   0.803   6.738  14.306  0.0000  0.0000  0.0000
 2492SOL    HW119582   0.890   6.700  14.299  0.0000  0.0000  0.0000
 2492SOL    HW219583   0.801   6.779  14.393  0.0000  0.0000  0.0000
 2492SOL     MW19584   0.814   6.738  14.317  0.0000  0.0000  0.0000
 2493SOL     OW19585   3.205   4.250  11.566  0.0000  0.0000  0.0000
 2493SOL    HW119586   3.263   4.322  11.541  0.0000  0.0000  0.0000
 2493SOL    HW219587   3.178   4.270  11.655  0.0000  0.0000  0.0000
 2493SOL     MW19588   3.209   4.262  11.574  0.0000  0.0000  0.0000
 2494SOL     OW19589   4.194   4.748  10.455  0.0000  0.0000  0.0000
 2494SOL    HW119590   4.158   4.735  10.367  0.0000  0.0000  0.0000
 2494SOL    HW219591   4.119   4.777  10.507  0.0000  0.0000  0.0000
 2494SOL     MW19592   4.179   4.750  10.450  0.0000  0.0000  0.0000
 2495SOL     OW19593   0.618   5.591  14.221  0.0000  0.0000  0.0000
 2495SOL    HW119594   0.705   5.581  14.182  0.0000  0.0000  0.0000
 2495SOL    HW219595   0.627   5.666  14.280  0.0000  0.0000  0.0000
 2495SOL     MW19596   0.631   5.600  14.223  0.0000  0.0000  0.0000
 2496SOL     OW19597   1.925   6.980  14.157  0.0000  0.0000  0.0000
 2496SOL    HW119598   1.982   7.015  14.226  0.0000  0.0000  0.0000
 2496SOL    HW219599   1.877   6.909  14.200  0.0000  0.0000  0.0000
 2496SOL     MW19600   1.926   6.975  14.172  0.0000  0.0000  0.0000
 2497SOL     OW19601   2.073   7.016  14.535  0.0000  0.0000  0.0000
 2497SOL    HW119602   2.090   7.109  14.552  0.0000  0.0000  0.0000
 2497SOL    HW219603   1.981   7.013  14.508  0.0000  0.0000  0.0000
 2497SOL     MW19604   2.063   7.028  14.533  0.0000  0.0000  0.0000
 2498SOL     OW19605   4.647   5.947  14.121  0.0000  0.0000  0.0000
 2498SOL    HW119606   4.688   6.011  14.179  0.0000  0.0000  0.0000
 2498SOL    HW219607   4.557   5.977  14.111  0.0000  0.0000  0.0000
 2498SOL     MW19608   4.641   5.959  14.127  0.0000  0.0000  0.0000
 2499SOL     OW19609   3.120   4.054  10.236  0.0000  0.0000  0.0000
 2499SOL    HW119610   3.081   4.122  10.292  0.0000  0.0000  0.0000
 2499SOL    HW219611   3.106   4.087  10.147  0.0000  0.0000  0.0000
 2499SOL     MW19612   3.113   4.068  10.232  0.0000  0.0000  0.0000
 2500SOL     OW19613   2.272   6.150  14.408  0.0000  0.0000  0.0000
 2500SOL    HW119614   2.313   6.139  14.323  0.0000  0.0000  0.0000
 2500SOL    HW219615   2.180   6.131  14.393  0.0000  0.0000  0.0000
 2500SOL     MW19616   2.265   6.146  14.395  0.0000  0.0000  0.0000
 2501SOL     OW19617   0.140   3.656  13.953  0.0000  0.0000  0.0000
 2501SOL    HW119618   0.152   3.584  14.014  0.0000  0.0000  0.0000
 2501SOL    HW219619   0.229   3.684  13.931  0.0000  0.0000  0.0000
 2501SOL     MW19620   0.153   3.650  13.958  0.0000  0.0000  0.0000
 2502SOL     OW19621   0.853   5.998  13.570  0.0000  0.0000  0.0000
 2502SOL    HW119622   0.766   5.960  13.560  0.0000  0.0000  0.0000
 2502SOL    HW219623   0.913   5.926  13.555  0.0000  0.0000  0.0000
 2502SOL     MW19624   0.849   5.984  13.567  0.0000  0.0000  0.0000
 2503SOL     OW19625   4.158   3.007  10.329  0.0000  0.0000  0.0000
 2503SOL    HW119626   4.072   3.018  10.368  0.0000  0.0000  0.0000
 2503SOL    HW219627   4.207   3.085  10.356  0.0000  0.0000  0.0000
 2503SOL     MW19628   4.153   3.019  10.338  0.0000  0.0000  0.0000
 2504SOL     OW19629   3.208   4.418   9.905  0.0000  0.0000  0.0000
 2504SOL    HW119630   3.221   4.488   9.842  0.0000  0.0000  0.0000
 2504SOL    HW219631   3.295   4.401   9.941  0.0000  0.0000  0.0000
 2504SOL     MW19632   3.222   4.425   9.901  0.0000  0.0000  0.0000
 2505SOL     OW19633   3.375   2.644  14.497  0.0000  0.0000  0.0000
 2505SOL    HW119634   3.354   2.596  14.577  0.0000  0.0000  0.0000
 2505SOL    HW219635   3.296   2.636  14.444  0.0000  0.0000  0.0000
 2505SOL     MW19636   3.361   2.637  14.501  0.0000  0.0000  0.0000
 2506SOL     OW19637   1.842   6.458  13.493  0.0000  0.0000  0.0000
 2506SOL    HW119638   1.879   6.406  13.565  0.0000  0.0000  0.0000
 2506SOL    HW219639   1.908   6.453  13.424  0.0000  0.0000  0.0000
 2506SOL     MW19640   1.856   6.450  13.494  0.0000  0.0000  0.0000
 2507SOL     OW19641   1.195   6.600  11.832  0.0000  0.0000  0.0000
 2507SOL    HW119642   1.273   6.643  11.796  0.0000  0.0000  0.0000
 2507SOL    HW219643   1.169   6.656  11.905  0.0000  0.0000  0.0000
 2507SOL     MW19644   1.201   6.613  11.837  0.0000  0.0000  0.0000
 2508SOL     OW19645   2.257   5.071  14.060  0.0000  0.0000  0.0000
 2508SOL    HW119646   2.162   5.076  14.050  0.0000  0.0000  0.0000
 2508SOL    HW219647   2.277   5.132  14.131  0.0000  0.0000  0.0000
 2508SOL     MW19648   2.247   5.080  14.068  0.0000  0.0000  0.0000
 2509SOL     OW19649   0.050   2.747  10.606  0.0000  0.0000  0.0000
 2509SOL    HW119650   0.027   2.821  10.663  0.0000  0.0000  0.0000
 2509SOL    HW219651   0.028   2.777  10.518  0.0000  0.0000  0.0000
 2509SOL     MW19652   0.045   2.761  10.602  0.0000  0.0000  0.0000
 2510SOL     OW19653   3.198   6.159  10.905  0.0000  0.0000  0.0000
 2510SOL    HW119654   3.124   6.192  10.855  0.0000  0.0000  0.0000
 2510SOL    HW219655   3.199   6.065  10.887  0.0000  0.0000  0.0000
 2510SOL     MW19656   3.188   6.151  10.896  0.0000  0.0000  0.0000
 2511SOL     OW19657   1.911   6.581  12.000  0.0000  0.0000  0.0000
 2511SOL    HW119658   1.989   6.628  12.031  0.0000  0.0000  0.0000
 2511SOL    HW219659   1.940   6.538  11.920  0.0000  0.0000  0.0000
 2511SOL     MW19660   1.925   6.582  11.994  0.0000  0.0000  0.0000
 2512SOL     OW19661   3.103   5.044   9.821  0.0000  0.0000  0.0000
 2512SOL    HW119662   3.063   4.962   9.789  0.0000  0.0000  0.0000
 2512SOL    HW219663   3.120   5.027   9.914  0.0000  0.0000  0.0000
 2512SOL     MW19664   3.100   5.031   9.829  0.0000  0.0000  0.0000
 2513SOL     OW19665   3.228   6.293   9.790  0.0000  0.0000  0.0000
 2513SOL    HW119666   3.295   6.243   9.744  0.0000  0.0000  0.0000
 2513SOL    HW219667   3.174   6.226   9.833  0.0000  0.0000  0.0000
 2513SOL     MW19668   3.230   6.277   9.790  0.0000  0.0000  0.0000
 2514SOL     OW19669   0.634   4.523   9.646  0.0000  0.0000  0.0000
 2514SOL    HW119670   0.632   4.473   9.727  0.0000  0.0000  0.0000
 2514SOL    HW219671   0.646   4.457   9.577  0.0000  0.0000  0.0000
 2514SOL     MW19672   0.635   4.508   9.647  0.0000  0.0000  0.0000
 2515SOL     OW19673   3.429   4.424  11.581  0.0000  0.0000  0.0000
 2515SOL    HW119674   3.501   4.361  11.583  0.0000  0.0000  0.0000
 2515SOL    HW219675   3.454   4.490  11.646  0.0000  0.0000  0.0000
 2515SOL     MW19676   3.442   4.424  11.590  0.0000  0.0000  0.0000
 2516SOL     OW19677   2.063   3.515  13.758  0.0000  0.0000  0.0000
 2516SOL    HW119678   2.137   3.568  13.731  0.0000  0.0000  0.0000
 2516SOL    HW219679   2.097   3.425  13.762  0.0000  0.0000  0.0000
 2516SOL     MW19680   2.077   3.510  13.755  0.0000  0.0000  0.0000
 2517SOL     OW19681   1.337   3.984  14.384  0.0000  0.0000  0.0000
 2517SOL    HW119682   1.282   4.054  14.416  0.0000  0.0000  0.0000
 2517SOL    HW219683   1.279   3.930  14.330  0.0000  0.0000  0.0000
 2517SOL     MW19684   1.322   3.986  14.381  0.0000  0.0000  0.0000
 2518SOL     OW19685   2.430   4.339  10.789  0.0000  0.0000  0.0000
 2518SOL    HW119686   2.411   4.418  10.738  0.0000  0.0000  0.0000
 2518SOL    HW219687   2.427   4.368  10.880  0.0000  0.0000  0.0000
 2518SOL     MW19688   2.427   4.353  10.794  0.0000  0.0000  0.0000
 2519SOL     OW19689   3.033   6.144  10.196  0.0000  0.0000  0.0000
 2519SOL    HW119690   3.108   6.104  10.240  0.0000  0.0000  0.0000
 2519SOL    HW219691   2.957   6.098  10.231  0.0000  0.0000  0.0000
 2519SOL     MW19692   3.033   6.132  10.206  0.0000  0.0000  0.0000
 2520SOL     OW19693   2.324   4.174   9.597  0.0000  0.0000  0.0000
 2520SOL    HW119694   2.287   4.216   9.675  0.0000  0.0000  0.0000
 2520SOL    HW219695   2.418   4.170   9.614  0.0000  0.0000  0.0000
 2520SOL     MW19696   2.331   4.179   9.609  0.0000  0.0000  0.0000
 2521SOL     OW19697   1.506   5.710  10.031  0.0000  0.0000  0.0000
 2521SOL    HW119698   1.468   5.667   9.954  0.0000  0.0000  0.0000
 2521SOL    HW219699   1.468   5.663  10.105  0.0000  0.0000  0.0000
 2521SOL     MW19700   1.496   5.698  10.031  0.0000  0.0000  0.0000
 2522SOL     OW19701   0.243   6.640  11.719  0.0000  0.0000  0.0000
 2522SOL    HW119702   0.227   6.597  11.635  0.0000  0.0000  0.0000
 2522SOL    HW219703   0.167   6.618  11.772  0.0000  0.0000  0.0000
 2522SOL     MW19704   0.231   6.632  11.715  0.0000  0.0000  0.0000
 2523SOL     OW19705   0.581   3.192  13.978  0.0000  0.0000  0.0000
 2523SOL    HW119706   0.676   3.194  13.969  0.0000  0.0000  0.0000
 2523SOL    HW219707   0.558   3.099  13.977  0.0000  0.0000  0.0000
 2523SOL     MW19708   0.591   3.180  13.977  0.0000  0.0000  0.0000
 2524SOL     OW19709   0.026   3.406   9.813  0.0000  0.0000  0.0000
 2524SOL    HW119710  -0.058   3.445   9.789  0.0000  0.0000  0.0000
 2524SOL    HW219711   0.060   3.464   9.882  0.0000  0.0000  0.0000
 2524SOL     MW19712   0.019   3.419   9.819  0.0000  0.0000  0.0000
 2525SOL     OW19713   0.547   4.763   9.895  0.0000  0.0000  0.0000
 2525SOL    HW119714   0.483   4.742   9.962  0.0000  0.0000  0.0000
 2525SOL    HW219715   0.630   4.729   9.929  0.0000  0.0000  0.0000
 2525SOL     MW19716   0.550   4.756   9.908  0.0000  0.0000  0.0000
 2526SOL     OW19717   2.187   4.330   9.821  0.0000  0.0000  0.0000
 2526SOL    HW119718   2.262   4.379   9.853  0.0000  0.0000  0.0000
 2526SOL    HW219719   2.119   4.397   9.806  0.0000  0.0000  0.0000
 2526SOL     MW19720   2.188   4.345   9.823  0.0000  0.0000  0.0000
 2527SOL     OW19721   0.598   2.669  14.430  0.0000  0.0000  0.0000
 2527SOL    HW119722   0.618   2.695  14.520  0.0000  0.0000  0.0000
 2527SOL    HW219723   0.554   2.746  14.392  0.0000  0.0000  0.0000
 2527SOL     MW19724   0.595   2.683  14.437  0.0000  0.0000  0.0000
 2528SOL     OW19725   4.336   6.195  14.386  0.0000  0.0000  0.0000
 2528SOL    HW119726   4.321   6.122  14.326  0.0000  0.0000  0.0000
 2528SOL    HW219727   4.422   6.230  14.360  0.0000  0.0000  0.0000
 2528SOL     MW19728   4.345   6.190  14.375  0.0000  0.0000  0.0000
 2529SOL     OW19729   3.387   3.300  10.205  0.0000  0.0000  0.0000
 2529SOL    HW119730   3.425   3.387  10.217  0.0000  0.0000  0.0000
 2529SOL    HW219731   3.310   3.299  10.262  0.0000  0.0000  0.0000
 2529SOL     MW19732   3.382   3.311  10.214  0.0000  0.0000  0.0000
 2530SOL     OW19733   0.693   6.321  13.791  0.0000  0.0000  0.0000
 2530SOL    HW119734   0.718   6.240  13.835  0.0000  0.0000  0.0000
 2530SOL    HW219735   0.703   6.302  13.697  0.0000  0.0000  0.0000
 2530SOL     MW19736   0.698   6.308  13.784  0.0000  0.0000  0.0000
 2531SOL     OW19737   2.604   2.798  11.992  0.0000  0.0000  0.0000
 2531SOL    HW119738   2.616   2.709  11.959  0.0000  0.0000  0.0000
 2531SOL    HW219739   2.690   2.822  12.027  0.0000  0.0000  0.0000
 2531SOL     MW19740   2.617   2.789  11.992  0.0000  0.0000  0.0000
 2532SOL     OW19741   1.763   6.189   9.889  0.0000  0.0000  0.0000
 2532SOL    HW119742   1.820   6.206   9.964  0.0000  0.0000  0.0000
 2532SOL    HW219743   1.759   6.273   9.843  0.0000  0.0000  0.0000
 2532SOL     MW19744   1.770   6.202   9.893  0.0000  0.0000  0.0000
 2533SOL     OW19745   3.040   5.529  14.096  0.0000  0.0000  0.0000
 2533SOL    HW119746   2.972   5.560  14.156  0.0000  0.0000  0.0000
 2533SOL    HW219747   3.078   5.453  14.141  0.0000  0.0000  0.0000
 2533SOL     MW19748   3.036   5.523  14.110  0.0000  0.0000  0.0000
 2534SOL     OW19749   2.439   2.967  11.879  0.0000  0.0000  0.0000
 2534SOL    HW119750   2.491   2.903  11.927  0.0000  0.0000  0.0000
 2534SOL    HW219751   2.446   3.047  11.930  0.0000  0.0000  0.0000
 2534SOL     MW19752   2.447   2.969  11.892  0.0000  0.0000  0.0000
 2535SOL     OW19753   2.255   2.814  11.770  0.0000  0.0000  0.0000
 2535SOL    HW119754   2.327   2.873  11.790  0.0000  0.0000  0.0000
 2535SOL    HW219755   2.208   2.856  11.698  0.0000  0.0000  0.0000
 2535SOL     MW19756   2.258   2.827  11.764  0.0000  0.0000  0.0000
 2536SOL     OW19757   3.363   6.674  13.871  0.0000  0.0000  0.0000
 2536SOL    HW119758   3.381   6.661  13.964  0.0000  0.0000  0.0000
 2536SOL    HW219759   3.334   6.588  13.840  0.0000  0.0000  0.0000
 2536SOL     MW19760   3.361   6.661  13.879  0.0000  0.0000  0.0000
 2537SOL     OW19761   3.134   3.987  11.084  0.0000  0.0000  0.0000
 2537SOL    HW119762   3.131   4.043  11.162  0.0000  0.0000  0.0000
 2537SOL    HW219763   3.123   4.048  11.011  0.0000  0.0000  0.0000
 2537SOL     MW19764   3.132   4.002  11.085  0.0000  0.0000  0.0000
 2538SOL     OW19765   2.707   5.449   9.927  0.0000  0.0000  0.0000
 2538SOL    HW119766   2.634   5.388   9.919  0.0000  0.0000  0.0000
 2538SOL    HW219767   2.670   5.526   9.968  0.0000  0.0000  0.0000
 2538SOL     MW19768   2.692   5.451   9.931  0.0000  0.0000  0.0000
 2539SOL     OW19769   2.826   4.445  13.388  0.0000  0.0000  0.0000
 2539SOL    HW119770   2.746   4.396  13.373  0.0000  0.0000  0.0000
 2539SOL    HW219771   2.890   4.379  13.415  0.0000  0.0000  0.0000
 2539SOL     MW19772   2.824   4.430  13.389  0.0000  0.0000  0.0000
 2540SOL     OW19773   2.433   3.124  12.264  0.0000  0.0000  0.0000
 2540SOL    HW119774   2.340   3.141  12.248  0.0000  0.0000  0.0000
 2540SOL    HW219775   2.472   3.118  12.177  0.0000  0.0000  0.0000
 2540SOL     MW19776   2.426   3.125  12.251  0.0000  0.0000  0.0000
 2541SOL     OW19777   3.103   2.807  12.246  0.0000  0.0000  0.0000
 2541SOL    HW119778   3.149   2.723  12.245  0.0000  0.0000  0.0000
 2541SOL    HW219779   3.172   2.873  12.253  0.0000  0.0000  0.0000
 2541SOL     MW19780   3.118   2.804  12.247  0.0000  0.0000  0.0000
 2542SOL     OW19781   2.716   3.933  12.267  0.0000  0.0000  0.0000
 2542SOL    HW119782   2.654   4.005  12.268  0.0000  0.0000  0.0000
 2542SOL    HW219783   2.674   3.864  12.318  0.0000  0.0000  0.0000
 2542SOL     MW19784   2.702   3.933  12.274  0.0000  0.0000  0.0000
 2543SOL     OW19785   2.561   3.085  11.622  0.0000  0.0000  0.0000
 2543SOL    HW119786   2.504   3.161  11.615  0.0000  0.0000  0.0000
 2543SOL    HW219787   2.537   3.045  11.706  0.0000  0.0000  0.0000
 2543SOL     MW19788   2.550   3.089  11.632  0.0000  0.0000  0.0000
 2544SOL     OW19789   2.345   3.148  10.610  0.0000  0.0000  0.0000
 2544SOL    HW119790   2.430   3.113  10.633  0.0000  0.0000  0.0000
 2544SOL    HW219791   2.360   3.240  10.592  0.0000  0.0000  0.0000
 2544SOL     MW19792   2.358   3.155  10.611  0.0000  0.0000  0.0000
 2545SOL     OW19793   2.186   3.168  11.212  0.0000  0.0000  0.0000
 2545SOL    HW119794   2.210   3.087  11.257  0.0000  0.0000  0.0000
 2545SOL    HW219795   2.268   3.216  11.205  0.0000  0.0000  0.0000
 2545SOL     MW19796   2.200   3.163  11.217  0.0000  0.0000  0.0000
 2546SOL     OW19797   3.600   3.608  12.208  0.0000  0.0000  0.0000
 2546SOL    HW119798   3.570   3.578  12.294  0.0000  0.0000  0.0000
 2546SOL    HW219799   3.521   3.637  12.163  0.0000  0.0000  0.0000
 2546SOL     MW19800   3.586   3.608  12.213  0.0000  0.0000  0.0000
 2547SOL     OW19801   3.590   3.340  12.097  0.0000  0.0000  0.0000
 2547SOL    HW119802   3.588   3.426  12.140  0.0000  0.0000  0.0000
 2547SOL    HW219803   3.682   3.315  12.097  0.0000  0.0000  0.0000
 2547SOL     MW19804   3.602   3.348  12.103  0.0000  0.0000  0.0000
 2548SOL     OW19805   0.700   4.320  11.685  0.0000  0.0000  0.0000
 2548SOL    HW119806   0.720   4.391  11.746  0.0000  0.0000  0.0000
 2548SOL    HW219807   0.620   4.280  11.720  0.0000  0.0000  0.0000
 2548SOL     MW19808   0.692   4.324  11.698  0.0000  0.0000  0.0000
 2549SOL     OW19809   3.289   3.275  11.363  0.0000  0.0000  0.0000
 2549SOL    HW119810   3.347   3.263  11.438  0.0000  0.0000  0.0000
 2549SOL    HW219811   3.308   3.200  11.306  0.0000  0.0000  0.0000
 2549SOL     MW19812   3.299   3.264  11.365  0.0000  0.0000  0.0000
 2550SOL     OW19813   3.077   3.394  12.511  0.0000  0.0000  0.0000
 2550SOL    HW119814   3.001   3.343  12.539  0.0000  0.0000  0.0000
 2550SOL    HW219815   3.049   3.485  12.514  0.0000  0.0000  0.0000
 2550SOL     MW19816   3.064   3.399  12.515  0.0000  0.0000  0.0000
 2551SOL     OW19817   0.913   4.272  10.094  0.0000  0.0000  0.0000
 2551SOL    HW119818   0.838   4.309  10.141  0.0000  0.0000  0.0000
 2551SOL    HW219819   0.878   4.246  10.009  0.0000  0.0000  0.0000
 2551SOL     MW19820   0.898   4.274  10.089  0.0000  0.0000  0.0000
 2552SOL     OW19821   3.662   3.890  12.261  0.0000  0.0000  0.0000
 2552SOL    HW119822   3.727   3.905  12.193  0.0000  0.0000  0.0000
 2552SOL    HW219823   3.639   3.798  12.252  0.0000  0.0000  0.0000
 2552SOL     MW19824   3.667   3.880  12.251  0.0000  0.0000  0.0000
 2553SOL     OW19825   2.832   3.088  11.681  0.0000  0.0000  0.0000
 2553SOL    HW119826   2.739   3.089  11.660  0.0000  0.0000  0.0000
 2553SOL    HW219827   2.872   3.038  11.610  0.0000  0.0000  0.0000
 2553SOL     MW19828   2.825   3.082  11.669  0.0000  0.0000  0.0000
 2554SOL     OW19829   3.715   3.816   9.711  0.0000  0.0000  0.0000
 2554SOL    HW119830   3.630   3.803   9.754  0.0000  0.0000  0.0000
 2554SOL    HW219831   3.712   3.760   9.634  0.0000  0.0000  0.0000
 2554SOL     MW19832   3.703   3.807   9.707  0.0000  0.0000  0.0000
 2555SOL     OW19833   3.307   4.456  13.980  0.0000  0.0000  0.0000
 2555SOL    HW119834   3.311   4.436  14.073  0.0000  0.0000  0.0000
 2555SOL    HW219835   3.345   4.544  13.972  0.0000  0.0000  0.0000
 2555SOL     MW19836   3.313   4.465  13.991  0.0000  0.0000  0.0000
 2556SOL     OW19837   2.839   2.827  12.142  0.0000  0.0000  0.0000
 2556SOL    HW119838   2.872   2.893  12.081  0.0000  0.0000  0.0000
 2556SOL    HW219839   2.916   2.799  12.191  0.0000  0.0000  0.0000
 2556SOL     MW19840   2.853   2.832  12.141  0.0000  0.0000  0.0000
 2557SOL     OW19841   0.229   5.425   9.804  0.0000  0.0000  0.0000
 2557SOL    HW119842   0.231   5.517   9.776  0.0000  0.0000  0.0000
 2557SOL    HW219843   0.321   5.399   9.809  0.0000  0.0000  0.0000
 2557SOL     MW19844   0.242   5.434   9.801  0.0000  0.0000  0.0000
 2558SOL     OW19845   3.501   4.087  13.274  0.0000  0.0000  0.0000
 2558SOL    HW119846   3.411   4.086  13.240  0.0000  0.0000  0.0000
 2558SOL    HW219847   3.551   4.133  13.207  0.0000  0.0000  0.0000
 2558SOL     MW19848   3.495   4.093  13.261  0.0000  0.0000  0.0000
 2559SOL     OW19849   2.436   5.485  13.877  0.0000  0.0000  0.0000
 2559SOL    HW119850   2.376   5.413  13.856  0.0000  0.0000  0.0000
 2559SOL    HW219851   2.400   5.524  13.956  0.0000  0.0000  0.0000
 2559SOL     MW19852   2.424   5.480  13.884  0.0000  0.0000  0.0000
 2560SOL     OW19853   4.103   4.306  10.024  0.0000  0.0000  0.0000
 2560SOL    HW119854   4.163   4.353  10.081  0.0000  0.0000  0.0000
 2560SOL    HW219855   4.148   4.301   9.939  0.0000  0.0000  0.0000
 2560SOL     MW19856   4.117   4.311  10.020  0.0000  0.0000  0.0000
 2561SOL     OW19857   2.082   4.725  14.396  0.0000  0.0000  0.0000
 2561SOL    HW119858   2.007   4.781  14.380  0.0000  0.0000  0.0000
 2561SOL    HW219859   2.150   4.757  14.337  0.0000  0.0000  0.0000
 2561SOL     MW19860   2.081   4.736  14.386  0.0000  0.0000  0.0000
 2562SOL     OW19861   1.777   3.695  10.002  0.0000  0.0000  0.0000
 2562SOL    HW119862   1.814   3.696   9.914  0.0000  0.0000  0.0000
 2562SOL    HW219863   1.691   3.655   9.992  0.0000  0.0000  0.0000
 2562SOL     MW19864   1.770   3.690   9.989  0.0000  0.0000  0.0000
 2563SOL     OW19865   1.775   6.664  14.487  0.0000  0.0000  0.0000
 2563SOL    HW119866   1.680   6.662  14.500  0.0000  0.0000  0.0000
 2563SOL    HW219867   1.811   6.679  14.574  0.0000  0.0000  0.0000
 2563SOL     MW19868   1.767   6.666  14.500  0.0000  0.0000  0.0000
 2564SOL     OW19869   0.849   5.092  10.006  0.0000  0.0000  0.0000
 2564SOL    HW119870   0.781   5.029  10.032  0.0000  0.0000  0.0000
 2564SOL    HW219871   0.886   5.122  10.089  0.0000  0.0000  0.0000
 2564SOL     MW19872   0.844   5.087  10.020  0.0000  0.0000  0.0000
 2565SOL     OW19873   4.458   2.683   9.599  0.0000  0.0000  0.0000
 2565SOL    HW119874   4.440   2.602   9.647  0.0000  0.0000  0.0000
 2565SOL    HW219875   4.507   2.737   9.661  0.0000  0.0000  0.0000
 2565SOL     MW19876   4.462   2.680   9.613  0.0000  0.0000  0.0000
 2566SOL     OW19877   4.585   6.036  13.761  0.0000  0.0000  0.0000
 2566SOL    HW119878   4.503   6.067  13.799  0.0000  0.0000  0.0000
 2566SOL    HW219879   4.642   6.113  13.762  0.0000  0.0000  0.0000
 2566SOL     MW19880   4.582   6.051  13.766  0.0000  0.0000  0.0000
 2567SOL     OW19881   0.801   2.830  10.281  0.0000  0.0000  0.0000
 2567SOL    HW119882   0.751   2.860  10.205  0.0000  0.0000  0.0000
 2567SOL    HW219883   0.759   2.748  10.306  0.0000  0.0000  0.0000
 2567SOL     MW19884   0.789   2.823  10.274  0.0000  0.0000  0.0000
 2568SOL     OW19885   3.128   3.104  13.571  0.0000  0.0000  0.0000
 2568SOL    HW119886   3.039   3.070  13.581  0.0000  0.0000  0.0000
 2568SOL    HW219887   3.121   3.168  13.499  0.0000  0.0000  0.0000
 2568SOL     MW19888   3.115   3.108  13.563  0.0000  0.0000  0.0000
 2569SOL     OW19889   2.842   4.250   9.935  0.0000  0.0000  0.0000
 2569SOL    HW119890   2.922   4.215   9.897  0.0000  0.0000  0.0000
 2569SOL    HW219891   2.797   4.173   9.971  0.0000  0.0000  0.0000
 2569SOL     MW19892   2.846   4.235   9.935  0.0000  0.0000  0.0000
 2570SOL     OW19893   4.410   7.114  10.252  0.0000  0.0000  0.0000
 2570SOL    HW119894   4.416   7.019  10.268  0.0000  0.0000  0.0000
 2570SOL    HW219895   4.331   7.125  10.200  0.0000  0.0000  0.0000
 2570SOL     MW19896   4.401   7.103  10.248  0.0000  0.0000  0.0000
 2571SOL     OW19897   1.529   4.358   9.778  0.0000  0.0000  0.0000
 2571SOL    HW119898   1.487   4.286   9.731  0.0000  0.0000  0.0000
 2571SOL    HW219899   1.615   4.326   9.801  0.0000  0.0000  0.0000
 2571SOL     MW19900   1.535   4.345   9.775  0.0000  0.0000  0.0000
 2572SOL     OW19901   0.685   2.855  10.036  0.0000  0.0000  0.0000
 2572SOL    HW119902   0.692   2.914   9.961  0.0000  0.0000  0.0000
 2572SOL    HW219903   0.661   2.770   9.998  0.0000  0.0000  0.0000
 2572SOL     MW19904   0.682   2.852  10.021  0.0000  0.0000  0.0000
 2573SOL     OW19905   3.108   5.543  10.865  0.0000  0.0000  0.0000
 2573SOL    HW119906   3.188   5.596  10.863  0.0000  0.0000  0.0000
 2573SOL    HW219907   3.125   5.477  10.932  0.0000  0.0000  0.0000
 2573SOL     MW19908   3.121   5.541  10.873  0.0000  0.0000  0.0000
 2574SOL     OW19909   1.085   2.800  10.285  0.0000  0.0000  0.0000
 2574SOL    HW119910   1.130   2.783  10.202  0.0000  0.0000  0.0000
 2574SOL    HW219911   0.992   2.801  10.262  0.0000  0.0000  0.0000
 2574SOL     MW19912   1.079   2.798  10.271  0.0000  0.0000  0.0000
 2575SOL     OW19913   1.090   2.625  13.862  0.0000  0.0000  0.0000
 2575SOL    HW119914   1.099   2.711  13.820  0.0000  0.0000  0.0000
 2575SOL    HW219915   1.082   2.644  13.955  0.0000  0.0000  0.0000
 2575SOL     MW19916   1.090   2.639  13.869  0.0000  0.0000  0.0000
 2576SOL     OW19917   3.167   3.947   9.957  0.0000  0.0000  0.0000
 2576SOL    HW119918   3.179   3.906   9.871  0.0000  0.0000  0.0000
 2576SOL    HW219919   3.127   3.879  10.010  0.0000  0.0000  0.0000
 2576SOL     MW19920   3.164   3.933   9.952  0.0000  0.0000  0.0000
 2577SOL     OW19921   2.100   4.785  10.629  0.0000  0.0000  0.0000
 2577SOL    HW119922   2.128   4.771  10.719  0.0000  0.0000  0.0000
 2577SOL    HW219923   2.123   4.877  10.611  0.0000  0.0000  0.0000
 2577SOL     MW19924   2.107   4.795  10.638  0.0000  0.0000  0.0000
 2578SOL     OW19925   3.350   3.339  13.182  0.0000  0.0000  0.0000
 2578SOL    HW119926   3.360   3.248  13.156  0.0000  0.0000  0.0000
 2578SOL    HW219927   3.397   3.346  13.265  0.0000  0.0000  0.0000
 2578SOL     MW19928   3.357   3.328  13.189  0.0000  0.0000  0.0000
 2579SOL     OW19929   1.248   2.594  14.212  0.0000  0.0000  0.0000
 2579SOL    HW119930   1.197   2.669  14.179  0.0000  0.0000  0.0000
 2579SOL    HW219931   1.230   2.524  14.149  0.0000  0.0000  0.0000
 2579SOL     MW19932   1.239   2.595  14.200  0.0000  0.0000  0.0000
 2580SOL     OW19933   3.290   5.649  11.167  0.0000  0.0000  0.0000
 2580SOL    HW119934   3.295   5.742  11.145  0.0000  0.0000  0.0000
 2580SOL    HW219935   3.358   5.608  11.115  0.0000  0.0000  0.0000
 2580SOL     MW19936   3.299   5.656  11.157  0.0000  0.0000  0.0000
 2581SOL     OW19937   0.885   5.314  11.355  0.0000  0.0000  0.0000
 2581SOL    HW119938   0.925   5.348  11.275  0.0000  0.0000  0.0000
 2581SOL    HW219939   0.792   5.311  11.335  0.0000  0.0000  0.0000
 2581SOL     MW19940   0.878   5.318  11.342  0.0000  0.0000  0.0000
 2582SOL     OW19941   1.841   6.273  11.334  0.0000  0.0000  0.0000
 2582SOL    HW119942   1.810   6.200  11.280  0.0000  0.0000  0.0000
 2582SOL    HW219943   1.761   6.319  11.360  0.0000  0.0000  0.0000
 2582SOL     MW19944   1.826   6.269  11.330  0.0000  0.0000  0.0000
 2583SOL     OW19945   0.851   7.183  13.779  0.0000  0.0000  0.0000
 2583SOL    HW119946   0.938   7.219  13.794  0.0000  0.0000  0.0000
 2583SOL    HW219947   0.832   7.204  13.687  0.0000  0.0000  0.0000
 2583SOL     MW19948   0.860   7.191  13.769  0.0000  0.0000  0.0000
 2584SOL     OW19949   1.321   6.209  11.010  0.0000  0.0000  0.0000
 2584SOL    HW119950   1.328   6.293  10.966  0.0000  0.0000  0.0000
 2584SOL    HW219951   1.380   6.216  11.085  0.0000  0.0000  0.0000
 2584SOL     MW19952   1.330   6.221  11.014  0.0000  0.0000  0.0000
 2585SOL     OW19953   4.179   2.935  10.041  0.0000  0.0000  0.0000
 2585SOL    HW119954   4.156   3.019   9.999  0.0000  0.0000  0.0000
 2585SOL    HW219955   4.175   2.953  10.135  0.0000  0.0000  0.0000
 2585SOL     MW19956   4.176   2.949  10.048  0.0000  0.0000  0.0000
 2586SOL     OW19957   2.956   4.614  13.192  0.0000  0.0000  0.0000
 2586SOL    HW119958   2.931   4.546  13.255  0.0000  0.0000  0.0000
 2586SOL    HW219959   2.897   4.602  13.118  0.0000  0.0000  0.0000
 2586SOL     MW19960   2.945   4.604  13.191  0.0000  0.0000  0.0000
 2587SOL     OW19961   2.965   5.125  10.992  0.0000  0.0000  0.0000
 2587SOL    HW119962   2.984   5.096  10.903  0.0000  0.0000  0.0000
 2587SOL    HW219963   3.015   5.206  11.003  0.0000  0.0000  0.0000
 2587SOL     MW19964   2.974   5.132  10.982  0.0000  0.0000  0.0000
 2588SOL     OW19965   1.050   6.346  12.102  0.0000  0.0000  0.0000
 2588SOL    HW119966   1.136   6.318  12.072  0.0000  0.0000  0.0000
 2588SOL    HW219967   1.016   6.269  12.149  0.0000  0.0000  0.0000
 2588SOL     MW19968   1.057   6.332  12.104  0.0000  0.0000  0.0000
 2589SOL     OW19969   3.054   6.237  13.743  0.0000  0.0000  0.0000
 2589SOL    HW119970   2.999   6.176  13.792  0.0000  0.0000  0.0000
 2589SOL    HW219971   3.036   6.322  13.784  0.0000  0.0000  0.0000
 2589SOL     MW19972   3.044   6.240  13.755  0.0000  0.0000  0.0000
 2590SOL     OW19973   2.294   5.029  10.559  0.0000  0.0000  0.0000
 2590SOL    HW119974   2.344   5.007  10.480  0.0000  0.0000  0.0000
 2590SOL    HW219975   2.340   5.104  10.596  0.0000  0.0000  0.0000
 2590SOL     MW19976   2.307   5.036  10.553  0.0000  0.0000  0.0000
 2591SOL     OW19977   3.127   5.334  11.041  0.0000  0.0000  0.0000
 2591SOL    HW119978   3.213   5.298  11.018  0.0000  0.0000  0.0000
 2591SOL    HW219979   3.134   5.355  11.134  0.0000  0.0000  0.0000
 2591SOL     MW19980   3.140   5.332  11.050  0.0000  0.0000  0.0000
 2592SOL     OW19981   1.596   3.645  14.341  0.0000  0.0000  0.0000
 2592SOL    HW119982   1.613   3.738  14.322  0.0000  0.0000  0.0000
 2592SOL    HW219983   1.516   3.645  14.392  0.0000  0.0000  0.0000
 2592SOL     MW19984   1.588   3.657  14.345  0.0000  0.0000  0.0000
 2593SOL     OW19985   2.696   5.006  10.835  0.0000  0.0000  0.0000
 2593SOL    HW119986   2.628   4.949  10.797  0.0000  0.0000  0.0000
 2593SOL    HW219987   2.776   4.979  10.790  0.0000  0.0000  0.0000
 2593SOL     MW19988   2.697   4.995  10.824  0.0000  0.0000  0.0000
 2594SOL     OW19989   0.669   3.321  10.276  0.0000  0.0000  0.0000
 2594SOL    HW119990   0.721   3.385  10.325  0.0000  0.0000  0.0000
 2594SOL    HW219991   0.594   3.304  10.333  0.0000  0.0000  0.0000
 2594SOL     MW19992   0.666   3.327  10.290  0.0000  0.0000  0.0000
 2595SOL     OW19993   0.214   5.353  12.781  0.0000  0.0000  0.0000
 2595SOL    HW119994   0.291   5.409  12.777  0.0000  0.0000  0.0000
 2595SOL    HW219995   0.174   5.360  12.695  0.0000  0.0000  0.0000
 2595SOL     MW19996   0.219   5.361  12.769  0.0000  0.0000  0.0000
 2596SOL     OW19997   1.130   3.095  10.302  0.0000  0.0000  0.0000
 2596SOL    HW119998   1.080   3.080  10.221  0.0000  0.0000  0.0000
 2596SOL    HW219999   1.181   3.015  10.313  0.0000  0.0000  0.0000
 2596SOL     MW20000   1.130   3.082  10.293  0.0000  0.0000  0.0000
 2597SOL     OW20001   4.006   3.900  13.222  0.0000  0.0000  0.0000
 2597SOL    HW120002   4.090   3.869  13.188  0.0000  0.0000  0.0000
 2597SOL    HW220003   3.980   3.833  13.285  0.0000  0.0000  0.0000
 2597SOL     MW20004   4.014   3.887  13.226  0.0000  0.0000  0.0000
 2598SOL     OW20005   1.016   4.846   9.734  0.0000  0.0000  0.0000
 2598SOL    HW120006   0.945   4.784   9.715  0.0000  0.0000  0.0000
 2598SOL    HW220007   1.071   4.845   9.655  0.0000  0.0000  0.0000
 2598SOL     MW20008   1.014   4.838   9.721  0.0000  0.0000  0.0000
 2599SOL     OW20009   0.871   3.322  13.823  0.0000  0.0000  0.0000
 2599SOL    HW120010   0.807   3.365  13.766  0.0000  0.0000  0.0000
 2599SOL    HW220011   0.955   3.343  13.783  0.0000  0.0000  0.0000
 2599SOL     MW20012   0.873   3.331  13.810  0.0000  0.0000  0.0000
 2600SOL     OW20013   1.143   6.396  10.678  0.0000  0.0000  0.0000
 2600SOL    HW120014   1.153   6.413  10.585  0.0000  0.0000  0.0000
 2600SOL    HW220015   1.102   6.475  10.713  0.0000  0.0000  0.0000
 2600SOL     MW20016   1.139   6.409  10.671  0.0000  0.0000  0.0000
 2601SOL     OW20017   0.455   6.024  12.477  0.0000  0.0000  0.0000
 2601SOL    HW120018   0.406   5.971  12.540  0.0000  0.0000  0.0000
 2601SOL    HW220019   0.436   5.984  12.392  0.0000  0.0000  0.0000
 2601SOL     MW20020   0.446   6.012  12.474  0.0000  0.0000  0.0000
 2602SOL     OW20021   3.346   6.089  11.706  0.0000  0.0000  0.0000
 2602SOL    HW120022   3.274   6.105  11.645  0.0000  0.0000  0.0000
 2602SOL    HW220023   3.316   6.126  11.789  0.0000  0.0000  0.0000
 2602SOL     MW20024   3.333   6.096  11.709  0.0000  0.0000  0.0000
 2603SOL     OW20025   3.107   6.140  11.601  0.0000  0.0000  0.0000
 2603SOL    HW120026   3.100   6.229  11.635  0.0000  0.0000  0.0000
 2603SOL    HW220027   3.017   6.108  11.600  0.0000  0.0000  0.0000
 2603SOL     MW20028   3.094   6.147  11.606  0.0000  0.0000  0.0000
 2604SOL     OW20029   2.171   5.613  12.686  0.0000  0.0000  0.0000
 2604SOL    HW120030   2.103   5.676  12.710  0.0000  0.0000  0.0000
 2604SOL    HW220031   2.245   5.667  12.659  0.0000  0.0000  0.0000
 2604SOL     MW20032   2.172   5.628  12.686  0.0000  0.0000  0.0000
 2605SOL     OW20033   3.394   6.312  11.974  0.0000  0.0000  0.0000
 2605SOL    HW120034   3.484   6.329  11.948  0.0000  0.0000  0.0000
 2605SOL    HW220035   3.341   6.351  11.904  0.0000  0.0000  0.0000
 2605SOL     MW20036   3.399   6.320  11.961  0.0000  0.0000  0.0000
 2606SOL     OW20037   3.073   6.180  11.957  0.0000  0.0000  0.0000
 2606SOL    HW120038   3.085   6.259  11.903  0.0000  0.0000  0.0000
 2606SOL    HW220039   3.130   6.194  12.033  0.0000  0.0000  0.0000
 2606SOL     MW20040   3.082   6.193  11.960  0.0000  0.0000  0.0000
 2607SOL     OW20041   3.098   6.430  12.277  0.0000  0.0000  0.0000
 2607SOL    HW120042   3.058   6.456  12.195  0.0000  0.0000  0.0000
 2607SOL    HW220043   3.134   6.342  12.260  0.0000  0.0000  0.0000
 2607SOL     MW20044   3.098   6.422  12.264  0.0000  0.0000  0.0000
 2608SOL     OW20045   3.901   4.876  12.507  0.0000  0.0000  0.0000
 2608SOL    HW120046   3.918   4.782  12.506  0.0000  0.0000  0.0000
 2608SOL    HW220047   3.913   4.904  12.416  0.0000  0.0000  0.0000
 2608SOL     MW20048   3.905   4.867  12.495  0.0000  0.0000  0.0000
 2609SOL     OW20049   3.010   5.926  11.912  0.0000  0.0000  0.0000
 2609SOL    HW120050   2.915   5.909  11.907  0.0000  0.0000  0.0000
 2609SOL    HW220051   3.017   6.020  11.928  0.0000  0.0000  0.0000
 2609SOL     MW20052   2.998   5.936  11.913  0.0000  0.0000  0.0000
 2610SOL     OW20053   3.708   5.694  12.069  0.0000  0.0000  0.0000
 2610SOL    HW120054   3.768   5.637  12.020  0.0000  0.0000  0.0000
 2610SOL    HW220055   3.632   5.705  12.012  0.0000  0.0000  0.0000
 2610SOL     MW20056   3.706   5.688  12.055  0.0000  0.0000  0.0000
 2611SOL     OW20057   2.342   4.616  12.164  0.0000  0.0000  0.0000
 2611SOL    HW120058   2.274   4.554  12.137  0.0000  0.0000  0.0000
 2611SOL    HW220059   2.328   4.692  12.108  0.0000  0.0000  0.0000
 2611SOL     MW20060   2.331   4.618  12.153  0.0000  0.0000  0.0000
 2612SOL     OW20061   3.471   4.613  11.773  0.0000  0.0000  0.0000
 2612SOL    HW120062   3.564   4.635  11.777  0.0000  0.0000  0.0000
 2612SOL    HW220063   3.440   4.621  11.863  0.0000  0.0000  0.0000
 2612SOL     MW20064   3.479   4.617  11.785  0.0000  0.0000  0.0000
 2613SOL     OW20065   3.008   6.490  12.013  0.0000  0.0000  0.0000
 2613SOL    HW120066   3.008   6.580  12.045  0.0000  0.0000  0.0000
 2613SOL    HW220067   2.917   6.472  11.992  0.0000  0.0000  0.0000
 2613SOL     MW20068   2.996   6.500  12.015  0.0000  0.0000  0.0000
 2614SOL     OW20069   2.210   4.948  12.812  0.0000  0.0000  0.0000
 2614SOL    HW120070   2.290   4.996  12.788  0.0000  0.0000  0.0000
 2614SOL    HW220071   2.165   4.935  12.729  0.0000  0.0000  0.0000
 2614SOL     MW20072   2.215   4.953  12.798  0.0000  0.0000  0.0000
 2615SOL     OW20073   3.916   4.594  12.478  0.0000  0.0000  0.0000
 2615SOL    HW120074   3.834   4.594  12.428  0.0000  0.0000  0.0000
 2615SOL    HW220075   3.939   4.501  12.485  0.0000  0.0000  0.0000
 2615SOL     MW20076   3.908   4.582  12.473  0.0000  0.0000  0.0000
 2616SOL     OW20077   2.774   4.994  11.702  0.0000  0.0000  0.0000
 2616SOL    HW120078   2.802   5.046  11.627  0.0000  0.0000  0.0000
 2616SOL    HW220079   2.727   4.920  11.664  0.0000  0.0000  0.0000
 2616SOL     MW20080   2.771   4.991  11.687  0.0000  0.0000  0.0000
 2617SOL     OW20081   3.951   4.985  12.269  0.0000  0.0000  0.0000
 2617SOL    HW120082   3.953   5.078  12.291  0.0000  0.0000  0.0000
 2617SOL    HW220083   3.924   4.982  12.178  0.0000  0.0000  0.0000
 2617SOL     MW20084   3.948   4.997  12.260  0.0000  0.0000  0.0000
 2618SOL     OW20085   2.690   5.114  12.562  0.0000  0.0000  0.0000
 2618SOL    HW120086   2.687   5.019  12.575  0.0000  0.0000  0.0000
 2618SOL    HW220087   2.710   5.150  12.648  0.0000  0.0000  0.0000
 2618SOL     MW20088   2.692   5.106  12.575  0.0000  0.0000  0.0000
 2619SOL     OW20089   3.447   4.591  12.044  0.0000  0.0000  0.0000
 2619SOL    HW120090   3.372   4.645  12.071  0.0000  0.0000  0.0000
 2619SOL    HW220091   3.415   4.501  12.049  0.0000  0.0000  0.0000
 2619SOL     MW20092   3.433   4.586  12.048  0.0000  0.0000  0.0000
 2620SOL     OW20093   3.719   5.683  12.346  0.0000  0.0000  0.0000
 2620SOL    HW120094   3.632   5.674  12.385  0.0000  0.0000  0.0000
 2620SOL    HW220095   3.703   5.689  12.252  0.0000  0.0000  0.0000
 2620SOL     MW20096   3.706   5.683  12.339  0.0000  0.0000  0.0000
 2621SOL     OW20097   2.179   5.408  12.504  0.0000  0.0000  0.0000
 2621SOL    HW120098   2.090   5.376  12.486  0.0000  0.0000  0.0000
 2621SOL    HW220099   2.169   5.460  12.584  0.0000  0.0000  0.0000
 2621SOL     MW20100   2.166   5.411  12.512  0.0000  0.0000  0.0000
 2622SOL     OW20101   2.789   3.002  10.308  0.0000  0.0000  0.0000
 2622SOL    HW120102   2.821   3.052  10.233  0.0000  0.0000  0.0000
 2622SOL    HW220103   2.840   3.036  10.382  0.0000  0.0000  0.0000
 2622SOL     MW20104   2.800   3.013  10.308  0.0000  0.0000  0.0000
 2623SOL     OW20105   1.792   4.678   9.681  0.0000  0.0000  0.0000
 2623SOL    HW120106   1.717   4.659   9.625  0.0000  0.0000  0.0000
 2623SOL    HW220107   1.753   4.700   9.766  0.0000  0.0000  0.0000
 2623SOL     MW20108   1.777   4.679   9.685  0.0000  0.0000  0.0000
 2624SOL     OW20109   1.048   4.865  10.199  0.0000  0.0000  0.0000
 2624SOL    HW120110   0.955   4.881  10.181  0.0000  0.0000  0.0000
 2624SOL    HW220111   1.049   4.824  10.286  0.0000  0.0000  0.0000
 2624SOL     MW20112   1.036   4.861  10.208  0.0000  0.0000  0.0000
 2625SOL     OW20113   0.229   6.301  14.442  0.0000  0.0000  0.0000
 2625SOL    HW120114   0.320   6.274  14.432  0.0000  0.0000  0.0000
 2625SOL    HW220115   0.220   6.319  14.536  0.0000  0.0000  0.0000
 2625SOL     MW20116   0.240   6.300  14.453  0.0000  0.0000  0.0000
 2626SOL     OW20117   4.150   6.302  10.677  0.0000  0.0000  0.0000
 2626SOL    HW120118   4.103   6.257  10.607  0.0000  0.0000  0.0000
 2626SOL    HW220119   4.088   6.304  10.750  0.0000  0.0000  0.0000
 2626SOL     MW20120   4.136   6.297  10.678  0.0000  0.0000  0.0000
 2627SOL     OW20121   1.591   2.781  13.626  0.0000  0.0000  0.0000
 2627SOL    HW120122   1.618   2.760  13.716  0.0000  0.0000  0.0000
 2627SOL    HW220123   1.563   2.697  13.590  0.0000  0.0000  0.0000
 2627SOL     MW20124   1.591   2.767  13.633  0.0000  0.0000  0.0000
 2628SOL     OW20125   3.928   6.848  10.245  0.0000  0.0000  0.0000
 2628SOL    HW120126   3.988   6.909  10.286  0.0000  0.0000  0.0000
 2628SOL    HW220127   3.913   6.883  10.157  0.0000  0.0000  0.0000
 2628SOL     MW20128   3.934   6.861  10.239  0.0000  0.0000  0.0000
 2629SOL     OW20129   3.880   2.642  10.666  0.0000  0.0000  0.0000
 2629SOL    HW120130   3.880   2.723  10.717  0.0000  0.0000  0.0000
 2629SOL    HW220131   3.953   2.652  10.605  0.0000  0.0000  0.0000
 2629SOL     MW20132   3.890   2.654  10.665  0.0000  0.0000  0.0000
 2630SOL     OW20133   3.135   4.921  14.167  0.0000  0.0000  0.0000
 2630SOL    HW120134   3.219   4.941  14.208  0.0000  0.0000  0.0000
 2630SOL    HW220135   3.159   4.890  14.080  0.0000  0.0000  0.0000
 2630SOL     MW20136   3.149   4.920  14.161  0.0000  0.0000  0.0000
 2631SOL     OW20137   1.949   5.908  14.107  0.0000  0.0000  0.0000
 2631SOL    HW120138   1.873   5.901  14.165  0.0000  0.0000  0.0000
 2631SOL    HW220139   2.024   5.885  14.162  0.0000  0.0000  0.0000
 2631SOL     MW20140   1.949   5.904  14.122  0.0000  0.0000  0.0000
 2632SOL     OW20141   1.013   5.920  13.856  0.0000  0.0000  0.0000
 2632SOL    HW120142   1.070   5.891  13.928  0.0000  0.0000  0.0000
 2632SOL    HW220143   1.072   5.931  13.782  0.0000  0.0000  0.0000
 2632SOL     MW20144   1.028   5.918  13.856  0.0000  0.0000  0.0000
 2633SOL     OW20145   0.252   4.114  14.340  0.0000  0.0000  0.0000
 2633SOL    HW120146   0.291   4.048  14.281  0.0000  0.0000  0.0000
 2633SOL    HW220147   0.316   4.185  14.340  0.0000  0.0000  0.0000
 2633SOL     MW20148   0.266   4.114  14.332  0.0000  0.0000  0.0000
 2634SOL     OW20149   3.804   6.467  12.647  0.0000  0.0000  0.0000
 2634SOL    HW120150   3.791   6.561  12.634  0.0000  0.0000  0.0000
 2634SOL    HW220151   3.889   6.460  12.689  0.0000  0.0000  0.0000
 2634SOL     MW20152   3.813   6.479  12.651  0.0000  0.0000  0.0000
 2635SOL     OW20153   3.414   4.179  14.555  0.0000  0.0000  0.0000
 2635SOL    HW120154   3.340   4.211  14.504  0.0000  0.0000  0.0000
 2635SOL    HW220155   3.468   4.130  14.492  0.0000  0.0000  0.0000
 2635SOL     MW20156   3.412   4.177  14.540  0.0000  0.0000  0.0000
 2636SOL     OW20157   3.142   5.097  10.125  0.0000  0.0000  0.0000
 2636SOL    HW120158   3.168   5.188  10.139  0.0000  0.0000  0.0000
 2636SOL    HW220159   3.047   5.099  10.126  0.0000  0.0000  0.0000
 2636SOL     MW20160   3.133   5.109  10.127  0.0000  0.0000  0.0000
 2637SOL     OW20161   1.638   6.631  13.209  0.0000  0.0000  0.0000
 2637SOL    HW120162   1.598   6.544  13.212  0.0000  0.0000  0.0000
 2637SOL    HW220163   1.586   6.679  13.144  0.0000  0.0000  0.0000
 2637SOL     MW20164   1.626   6.626  13.201  0.0000  0.0000  0.0000
 2638SOL     OW20165   2.810   4.630   9.682  0.0000  0.0000  0.0000
 2638SOL    HW120166   2.753   4.554   9.680  0.0000  0.0000  0.0000
 2638SOL    HW220167   2.761   4.696   9.731  0.0000  0.0000  0.0000
 2638SOL     MW20168   2.796   4.629   9.688  0.0000  0.0000  0.0000
 2639SOL     OW20169   3.871   6.097  10.835  0.0000  0.0000  0.0000
 2639SOL    HW120170   3.916   6.181  10.824  0.0000  0.0000  0.0000
 2639SOL    HW220171   3.937   6.040  10.876  0.0000  0.0000  0.0000
 2639SOL     MW20172   3.886   6.100  10.839  0.0000  0.0000  0.0000
 2640SOL     OW20173   1.708   2.815  13.376  0.0000  0.0000  0.0000
 2640SOL    HW120174   1.649   2.870  13.326  0.0000  0.0000  0.0000
 2640SOL    HW220175   1.662   2.798  13.458  0.0000  0.0000  0.0000
 2640SOL     MW20176   1.694   2.820  13.380  0.0000  0.0000  0.0000
 2641SOL     OW20177   1.010   2.913  14.323  0.0000  0.0000  0.0000
 2641SOL    HW120178   1.057   2.996  14.313  0.0000  0.0000  0.0000
 2641SOL    HW220179   0.918   2.936  14.310  0.0000  0.0000  0.0000
 2641SOL     MW20180   1.004   2.927  14.320  0.0000  0.0000  0.0000
 2642SOL     OW20181   1.774   5.626  10.043  0.0000  0.0000  0.0000
 2642SOL    HW120182   1.684   5.656  10.048  0.0000  0.0000  0.0000
 2642SOL    HW220183   1.781   5.585   9.956  0.0000  0.0000  0.0000
 2642SOL     MW20184   1.763   5.625  10.032  0.0000  0.0000  0.0000
 2643SOL     OW20185   4.491   2.724  13.429  0.0000  0.0000  0.0000
 2643SOL    HW120186   4.441   2.771  13.495  0.0000  0.0000  0.0000
 2643SOL    HW220187   4.428   2.663  13.390  0.0000  0.0000  0.0000
 2643SOL     MW20188   4.476   2.722  13.433  0.0000  0.0000  0.0000
 2644SOL     OW20189   0.851   3.076  13.725  0.0000  0.0000  0.0000
 2644SOL    HW120190   0.847   3.158  13.775  0.0000  0.0000  0.0000
 2644SOL    HW220191   0.905   3.096  13.650  0.0000  0.0000  0.0000
 2644SOL     MW20192   0.857   3.089  13.722  0.0000  0.0000  0.0000
 2645SOL     OW20193   4.662   2.844  13.772  0.0000  0.0000  0.0000
 2645SOL    HW120194   4.723   2.837  13.699  0.0000  0.0000  0.0000
 2645SOL    HW220195   4.700   2.912  13.828  0.0000  0.0000  0.0000
 2645SOL     MW20196   4.675   2.852  13.770  0.0000  0.0000  0.0000
 2646SOL     OW20197   2.974   6.965  13.753  0.0000  0.0000  0.0000
 2646SOL    HW120198   2.888   6.985  13.717  0.0000  0.0000  0.0000
 2646SOL    HW220199   2.971   6.998  13.843  0.0000  0.0000  0.0000
 2646SOL     MW20200   2.962   6.972  13.760  0.0000  0.0000  0.0000
 2647SOL     OW20201   2.199   7.018  14.231  0.0000  0.0000  0.0000
 2647SOL    HW120202   2.291   7.030  14.208  0.0000  0.0000  0.0000
 2647SOL    HW220203   2.200   7.002  14.326  0.0000  0.0000  0.0000
 2647SOL     MW20204   2.211   7.018  14.241  0.0000  0.0000  0.0000
 2648SOL     OW20205   1.716   2.971  13.995  0.0000  0.0000  0.0000
 2648SOL    HW120206   1.671   3.049  14.028  0.0000  0.0000  0.0000
 2648SOL    HW220207   1.809   2.992  14.000  0.0000  0.0000  0.0000
 2648SOL     MW20208   1.722   2.984  14.000  0.0000  0.0000  0.0000
 2649SOL     OW20209   3.336   5.680  10.825  0.0000  0.0000  0.0000
 2649SOL    HW120210   3.301   5.766  10.848  0.0000  0.0000  0.0000
 2649SOL    HW220211   3.330   5.677  10.730  0.0000  0.0000  0.0000
 2649SOL     MW20212   3.331   5.691  10.815  0.0000  0.0000  0.0000
 2650SOL     OW20213   2.987   5.150  14.462  0.0000  0.0000  0.0000
 2650SOL    HW120214   2.965   5.164  14.370  0.0000  0.0000  0.0000
 2650SOL    HW220215   2.945   5.222  14.509  0.0000  0.0000  0.0000
 2650SOL     MW20216   2.979   5.161  14.456  0.0000  0.0000  0.0000
 2651SOL     OW20217   1.295   2.725  13.396  0.0000  0.0000  0.0000
 2651SOL    HW120218   1.342   2.707  13.315  0.0000  0.0000  0.0000
 2651SOL    HW220219   1.279   2.639  13.434  0.0000  0.0000  0.0000
 2651SOL     MW20220   1.299   2.712  13.390  0.0000  0.0000  0.0000
 2652SOL     OW20221   1.394   3.320  14.270  0.0000  0.0000  0.0000
 2652SOL    HW120222   1.335   3.387  14.237  0.0000  0.0000  0.0000
 2652SOL    HW220223   1.428   3.357  14.352  0.0000  0.0000  0.0000
 2652SOL     MW20224   1.391   3.334  14.277  0.0000  0.0000  0.0000
 2653SOL     OW20225   3.672   3.953  13.484  0.0000  0.0000  0.0000
 2653SOL    HW120226   3.687   4.004  13.563  0.0000  0.0000  0.0000
 2653SOL    HW220227   3.620   4.010  13.427  0.0000  0.0000  0.0000
 2653SOL     MW20228   3.667   3.967  13.487  0.0000  0.0000  0.0000
 2654SOL     OW20229   4.635   6.167  12.986  0.0000  0.0000  0.0000
 2654SOL    HW120230   4.669   6.253  13.011  0.0000  0.0000  0.0000
 2654SOL    HW220231   4.584   6.138  13.062  0.0000  0.0000  0.0000
 2654SOL     MW20232   4.633   6.174  12.999  0.0000  0.0000  0.0000
 2655SOL     OW20233   0.497   5.338   9.724  0.0000  0.0000  0.0000
 2655SOL    HW120234   0.478   5.253   9.684  0.0000  0.0000  0.0000
 2655SOL    HW220235   0.584   5.327   9.762  0.0000  0.0000  0.0000
 2655SOL     MW20236   0.506   5.325   9.724  0.0000  0.0000  0.0000
 2656SOL     OW20237   3.080   3.191  10.258  0.0000  0.0000  0.0000
 2656SOL    HW120238   3.093   3.103  10.295  0.0000  0.0000  0.0000
 2656SOL    HW220239   3.004   3.182  10.201  0.0000  0.0000  0.0000
 2656SOL     MW20240   3.072   3.178  10.255  0.0000  0.0000  0.0000
 2657SOL     OW20241   0.077   5.857  14.431  0.0000  0.0000  0.0000
 2657SOL    HW120242   0.083   5.875  14.524  0.0000  0.0000  0.0000
 2657SOL    HW220243   0.158   5.811  14.410  0.0000  0.0000  0.0000
 2657SOL     MW20244   0.088   5.853  14.440  0.0000  0.0000  0.0000
 2658SOL     OW20245   4.368   5.690  12.888  0.0000  0.0000  0.0000
 2658SOL    HW120246   4.361   5.601  12.923  0.0000  0.0000  0.0000
 2658SOL    HW220247   4.292   5.700  12.831  0.0000  0.0000  0.0000
 2658SOL     MW20248   4.357   5.680  12.885  0.0000  0.0000  0.0000
 2659SOL     OW20249   0.946   2.961  13.954  0.0000  0.0000  0.0000
 2659SOL    HW120250   0.946   2.970  13.859  0.0000  0.0000  0.0000
 2659SOL    HW220251   1.002   2.885  13.971  0.0000  0.0000  0.0000
 2659SOL     MW20252   0.953   2.952  13.944  0.0000  0.0000  0.0000
 2660SOL     OW20253   2.773   6.236  10.325  0.0000  0.0000  0.0000
 2660SOL    HW120254   2.691   6.252  10.370  0.0000  0.0000  0.0000
 2660SOL    HW220255   2.771   6.293  10.249  0.0000  0.0000  0.0000
 2660SOL     MW20256   2.762   6.245  10.321  0.0000  0.0000  0.0000
 2661SOL     OW20257   2.659   5.878  14.260  0.0000  0.0000  0.0000
 2661SOL    HW120258   2.616   5.888  14.344  0.0000  0.0000  0.0000
 2661SOL    HW220259   2.726   5.947  14.258  0.0000  0.0000  0.0000
 2661SOL     MW20260   2.662   5.888  14.271  0.0000  0.0000  0.0000
 2662SOL     OW20261   3.380   5.020  14.271  0.0000  0.0000  0.0000
 2662SOL    HW120262   3.408   4.929  14.260  0.0000  0.0000  0.0000
 2662SOL    HW220263   3.434   5.070  14.210  0.0000  0.0000  0.0000
 2662SOL     MW20264   3.391   5.015  14.261  0.0000  0.0000  0.0000
 2663SOL     OW20265   1.921   6.194  10.137  0.0000  0.0000  0.0000
 2663SOL    HW120266   1.920   6.258  10.208  0.0000  0.0000  0.0000
 2663SOL    HW220267   1.914   6.110  10.181  0.0000  0.0000  0.0000
 2663SOL     MW20268   1.920   6.191  10.152  0.0000  0.0000  0.0000
 2664SOL     OW20269   1.568   5.275   9.799  0.0000  0.0000  0.0000
 2664SOL    HW120270   1.489   5.224   9.823  0.0000  0.0000  0.0000
 2664SOL    HW220271   1.617   5.217   9.741  0.0000  0.0000  0.0000
 2664SOL     MW20272   1.564   5.260   9.795  0.0000  0.0000  0.0000
 2665SOL     OW20273   0.307   3.976  14.069  0.0000  0.0000  0.0000
 2665SOL    HW120274   0.301   3.919  13.993  0.0000  0.0000  0.0000
 2665SOL    HW220275   0.302   4.065  14.033  0.0000  0.0000  0.0000
 2665SOL     MW20276   0.306   3.980  14.054  0.0000  0.0000  0.0000
 2666SOL     OW20277   4.048   6.208  13.380  0.0000  0.0000  0.0000
 2666SOL    HW120278   4.027   6.295  13.347  0.0000  0.0000  0.0000
 2666SOL    HW220279   4.126   6.221  13.433  0.0000  0.0000  0.0000
 2666SOL     MW20280   4.055   6.221  13.382  0.0000  0.0000  0.0000
 2667SOL     OW20281   4.452   2.649  14.421  0.0000  0.0000  0.0000
 2667SOL    HW120282   4.528   2.607  14.380  0.0000  0.0000  0.0000
 2667SOL    HW220283   4.463   2.742  14.401  0.0000  0.0000  0.0000
 2667SOL     MW20284   4.464   2.656  14.413  0.0000  0.0000  0.0000
 2668SOL     OW20285   2.235   2.848  12.855  0.0000  0.0000  0.0000
 2668SOL    HW120286   2.308   2.843  12.917  0.0000  0.0000  0.0000
 2668SOL    HW220287   2.160   2.816  12.905  0.0000  0.0000  0.0000
 2668SOL     MW20288   2.235   2.843  12.870  0.0000  0.0000  0.0000
 2669SOL     OW20289   0.150   6.549  13.898  0.0000  0.0000  0.0000
 2669SOL    HW120290   0.102   6.514  13.974  0.0000  0.0000  0.0000
 2669SOL    HW220291   0.231   6.583  13.934  0.0000  0.0000  0.0000
 2669SOL     MW20292   0.154   6.549  13.913  0.0000  0.0000  0.0000
 2670SOL     OW20293   0.795   3.245  14.199  0.0000  0.0000  0.0000
 2670SOL    HW120294   0.877   3.209  14.166  0.0000  0.0000  0.0000
 2670SOL    HW220295   0.822   3.305  14.269  0.0000  0.0000  0.0000
 2670SOL     MW20296   0.810   3.248  14.204  0.0000  0.0000  0.0000
 2671SOL     OW20297   0.727   7.109  11.980  0.0000  0.0000  0.0000
 2671SOL    HW120298   0.821   7.123  11.989  0.0000  0.0000  0.0000
 2671SOL    HW220299   0.718   7.049  11.906  0.0000  0.0000  0.0000
 2671SOL     MW20300   0.738   7.103  11.972  0.0000  0.0000  0.0000
 2672SOL     OW20301   1.396   3.758  12.615  0.0000  0.0000  0.0000
 2672SOL    HW120302   1.302   3.774  12.628  0.0000  0.0000  0.0000
 2672SOL    HW220303   1.408   3.764  12.520  0.0000  0.0000  0.0000
 2672SOL     MW20304   1.385   3.761  12.604  0.0000  0.0000  0.0000
 2673SOL     OW20305   2.779   6.593  12.572  0.0000  0.0000  0.0000
 2673SOL    HW120306   2.707   6.543  12.612  0.0000  0.0000  0.0000
 2673SOL    HW220307   2.845   6.528  12.551  0.0000  0.0000  0.0000
 2673SOL     MW20308   2.778   6.578  12.575  0.0000  0.0000  0.0000
 2674SOL     OW20309   3.542   6.851  12.547  0.0000  0.0000  0.0000
 2674SOL    HW120310   3.476   6.794  12.586  0.0000  0.0000  0.0000
 2674SOL    HW220311   3.624   6.824  12.587  0.0000  0.0000  0.0000
 2674SOL     MW20312   3.544   6.840  12.557  0.0000  0.0000  0.0000
 2675SOL     OW20313   3.181   6.401  11.815  0.0000  0.0000  0.0000
 2675SOL    HW120314   3.167   6.453  11.736  0.0000  0.0000  0.0000
 2675SOL    HW220315   3.131   6.446  11.883  0.0000  0.0000  0.0000
 2675SOL     MW20316   3.173   6.414  11.813  0.0000  0.0000  0.0000
 2676SOL     OW20317   1.184   2.717  10.527  0.0000  0.0000  0.0000
 2676SOL    HW120318   1.141   2.742  10.445  0.0000  0.0000  0.0000
 2676SOL    HW220319   1.199   2.623  10.519  0.0000  0.0000  0.0000
 2676SOL     MW20320   1.180   2.708  10.515  0.0000  0.0000  0.0000
 2677SOL     OW20321   3.235   6.215  12.165  0.0000  0.0000  0.0000
 2677SOL    HW120322   3.288   6.256  12.097  0.0000  0.0000  0.0000
 2677SOL    HW220323   3.268   6.125  12.170  0.0000  0.0000  0.0000
 2677SOL     MW20324   3.246   6.208  12.157  0.0000  0.0000  0.0000
 2678SOL     OW20325   1.789   3.101  10.048  0.0000  0.0000  0.0000
 2678SOL    HW120326   1.829   3.079   9.964  0.0000  0.0000  0.0000
 2678SOL    HW220327   1.824   3.186  10.071  0.0000  0.0000  0.0000
 2678SOL     MW20328   1.799   3.109  10.040  0.0000  0.0000  0.0000
 2679SOL     OW20329   4.433   3.227   9.978  0.0000  0.0000  0.0000
 2679SOL    HW120330   4.435   3.321   9.997  0.0000  0.0000  0.0000
 2679SOL    HW220331   4.458   3.221   9.886  0.0000  0.0000  0.0000
 2679SOL     MW20332   4.437   3.239   9.968  0.0000  0.0000  0.0000
 2680SOL     OW20333   3.097   4.133  11.324  0.0000  0.0000  0.0000
 2680SOL    HW120334   3.143   4.163  11.402  0.0000  0.0000  0.0000
 2680SOL    HW220335   3.012   4.177  11.328  0.0000  0.0000  0.0000
 2680SOL     MW20336   3.092   4.143  11.335  0.0000  0.0000  0.0000
 2681SOL     OW20337   3.195   7.133  14.143  0.0000  0.0000  0.0000
 2681SOL    HW120338   3.162   7.078  14.073  0.0000  0.0000  0.0000
 2681SOL    HW220339   3.233   7.209  14.099  0.0000  0.0000  0.0000
 2681SOL     MW20340   3.196   7.136  14.128  0.0000  0.0000  0.0000
 2682SOL     OW20341   3.769   4.386   9.768  0.0000  0.0000  0.0000
 2682SOL    HW120342   3.750   4.480   9.760  0.0000  0.0000  0.0000
 2682SOL    HW220343   3.857   4.376   9.732  0.0000  0.0000  0.0000
 2682SOL     MW20344   3.778   4.397   9.762  0.0000  0.0000  0.0000
 2683SOL     OW20345   2.252   4.715   9.962  0.0000  0.0000  0.0000
 2683SOL    HW120346   2.341   4.742   9.984  0.0000  0.0000  0.0000
 2683SOL    HW220347   2.226   4.659  10.036  0.0000  0.0000  0.0000
 2683SOL     MW20348   2.260   4.711   9.975  0.0000  0.0000  0.0000
 2684SOL     OW20349   4.395   3.895  10.587  0.0000  0.0000  0.0000
 2684SOL    HW120350   4.412   3.864  10.498  0.0000  0.0000  0.0000
 2684SOL    HW220351   4.418   3.822  10.643  0.0000  0.0000  0.0000
 2684SOL     MW20352   4.400   3.881  10.582  0.0000  0.0000  0.0000
 2685SOL     OW20353   0.623   5.293  12.841  0.0000  0.0000  0.0000
 2685SOL    HW120354   0.633   5.379  12.799  0.0000  0.0000  0.0000
 2685SOL    HW220355   0.678   5.298  12.919  0.0000  0.0000  0.0000
 2685SOL     MW20356   0.631   5.305  12.846  0.0000  0.0000  0.0000
 2686SOL     OW20357   0.817   4.761   9.961  0.0000  0.0000  0.0000
 2686SOL    HW120358   0.866   4.799   9.887  0.0000  0.0000  0.0000
 2686SOL    HW220359   0.859   4.675   9.974  0.0000  0.0000  0.0000
 2686SOL     MW20360   0.829   4.755   9.953  0.0000  0.0000  0.0000
 2687SOL     OW20361   1.775   6.737  14.223  0.0000  0.0000  0.0000
 2687SOL    HW120362   1.769   6.700  14.311  0.0000  0.0000  0.0000
 2687SOL    HW220363   1.688   6.773  14.206  0.0000  0.0000  0.0000
 2687SOL     MW20364   1.763   6.737  14.232  0.0000  0.0000  0.0000
 2688SOL     OW20365   3.142   2.640  14.354  0.0000  0.0000  0.0000
 2688SOL    HW120366   3.074   2.707  14.346  0.0000  0.0000  0.0000
 2688SOL    HW220367   3.144   2.598  14.268  0.0000  0.0000  0.0000
 2688SOL     MW20368   3.134   2.644  14.342  0.0000  0.0000  0.0000
 2689SOL     OW20369   4.161   2.903  13.333  0.0000  0.0000  0.0000
 2689SOL    HW120370   4.124   2.986  13.365  0.0000  0.0000  0.0000
 2689SOL    HW220371   4.221   2.876  13.403  0.0000  0.0000  0.0000
 2689SOL     MW20372   4.164   2.911  13.347  0.0000  0.0000  0.0000
 2690SOL     OW20373   2.277   6.082  13.932  0.0000  0.0000  0.0000
 2690SOL    HW120374   2.348   6.018  13.944  0.0000  0.0000  0.0000
 2690SOL    HW220375   2.262   6.084  13.838  0.0000  0.0000  0.0000
 2690SOL     MW20376   2.285   6.074  13.921  0.0000  0.0000  0.0000
 2691SOL     OW20377   1.175   6.440  10.409  0.0000  0.0000  0.0000
 2691SOL    HW120378   1.143   6.363  10.362  0.0000  0.0000  0.0000
 2691SOL    HW220379   1.237   6.481  10.349  0.0000  0.0000  0.0000
 2691SOL     MW20380   1.179   6.436  10.395  0.0000  0.0000  0.0000
 2692SOL     OW20381   0.143   4.461  13.912  0.0000  0.0000  0.0000
 2692SOL    HW120382   0.066   4.409  13.891  0.0000  0.0000  0.0000
 2692SOL    HW220383   0.143   4.532  13.847  0.0000  0.0000  0.0000
 2692SOL     MW20384   0.133   4.463  13.901  0.0000  0.0000  0.0000
 2693SOL     OW20385   0.784   5.279   9.771  0.0000  0.0000  0.0000
 2693SOL    HW120386   0.790   5.215   9.700  0.0000  0.0000  0.0000
 2693SOL    HW220387   0.802   5.229   9.850  0.0000  0.0000  0.0000
 2693SOL     MW20388   0.787   5.264   9.772  0.0000  0.0000  0.0000
 2694SOL     OW20389   1.437   2.823  10.536  0.0000  0.0000  0.0000
 2694SOL    HW120390   1.442   2.892  10.469  0.0000  0.0000  0.0000
 2694SOL    HW220391   1.373   2.761  10.502  0.0000  0.0000  0.0000
 2694SOL     MW20392   1.429   2.824  10.523  0.0000  0.0000  0.0000
 2695SOL     OW20393   4.404   5.499  14.014  0.0000  0.0000  0.0000
 2695SOL    HW120394   4.496   5.476  14.001  0.0000  0.0000  0.0000
 2695SOL    HW220395   4.387   5.565  13.947  0.0000  0.0000  0.0000
 2695SOL     MW20396   4.414   5.505  14.003  0.0000  0.0000  0.0000
 2696SOL     OW20397   2.572   6.509  10.035  0.0000  0.0000  0.0000
 2696SOL    HW120398   2.518   6.435  10.065  0.0000  0.0000  0.0000
 2696SOL    HW220399   2.575   6.499   9.940  0.0000  0.0000  0.0000
 2696SOL     MW20400   2.565   6.498  10.027  0.0000  0.0000  0.0000
 2697SOL     OW20401   3.898   2.867  10.810  0.0000  0.0000  0.0000
 2697SOL    HW120402   3.837   2.927  10.767  0.0000  0.0000  0.0000
 2697SOL    HW220403   3.910   2.905  10.897  0.0000  0.0000  0.0000
 2697SOL     MW20404   3.892   2.880  10.816  0.0000  0.0000  0.0000
 2698SOL     OW20405   1.226   7.132  13.635  0.0000  0.0000  0.0000
 2698SOL    HW120406   1.171   7.144  13.713  0.0000  0.0000  0.0000
 2698SOL    HW220407   1.174   7.075  13.578  0.0000  0.0000  0.0000
 2698SOL     MW20408   1.212   7.126  13.638  0.0000  0.0000  0.0000
 2699SOL     OW20409   1.898   6.274  13.962  0.0000  0.0000  0.0000
 2699SOL    HW120410   1.870   6.360  13.991  0.0000  0.0000  0.0000
 2699SOL    HW220411   1.882   6.217  14.037  0.0000  0.0000  0.0000
 2699SOL     MW20412   1.892   6.278  13.976  0.0000  0.0000  0.0000
 2700SOL     OW20413   1.692   5.094   9.635  0.0000  0.0000  0.0000
 2700SOL    HW120414   1.762   5.030   9.637  0.0000  0.0000  0.0000
 2700SOL    HW220415   1.613   5.043   9.616  0.0000  0.0000  0.0000
 2700SOL     MW20416   1.691   5.079   9.632  0.0000  0.0000  0.0000
 2701SOL     OW20417   3.117   7.065   9.736  0.0000  0.0000  0.0000
 2701SOL    HW120418   3.148   7.028   9.819  0.0000  0.0000  0.0000
 2701SOL    HW220419   3.059   7.136   9.762  0.0000  0.0000  0.0000
 2701SOL     MW20420   3.113   7.070   9.751  0.0000  0.0000  0.0000
 2702SOL     OW20421   4.607   3.167   9.732  0.0000  0.0000  0.0000
 2702SOL    HW120422   4.619   3.164   9.637  0.0000  0.0000  0.0000
 2702SOL    HW220423   4.623   3.258   9.755  0.0000  0.0000  0.0000
 2702SOL     MW20424   4.610   3.179   9.722  0.0000  0.0000  0.0000
 2703SOL     OW20425   0.702   3.062   9.857  0.0000  0.0000  0.0000
 2703SOL    HW120426   0.741   3.121   9.922  0.0000  0.0000  0.0000
 2703SOL    HW220427   0.620   3.103   9.832  0.0000  0.0000  0.0000
 2703SOL     MW20428   0.696   3.075   9.863  0.0000  0.0000  0.0000
 2704SOL     OW20429   4.054   7.172  14.071  0.0000  0.0000  0.0000
 2704SOL    HW120430   4.149   7.181  14.082  0.0000  0.0000  0.0000
 2704SOL    HW220431   4.017   7.220  14.145  0.0000  0.0000  0.0000
 2704SOL     MW20432   4.062   7.179  14.082  0.0000  0.0000  0.0000
 2705SOL     OW20433   1.341   2.944  14.098  0.0000  0.0000  0.0000
 2705SOL    HW120434   1.395   2.929  14.175  0.0000  0.0000  0.0000
 2705SOL    HW220435   1.390   2.904  14.026  0.0000  0.0000  0.0000
 2705SOL     MW20436   1.355   2.937  14.099  0.0000  0.0000  0.0000
 2706SOL     OW20437   0.133   4.925  14.404  0.0000  0.0000  0.0000
 2706SOL    HW120438   0.160   4.866  14.475  0.0000  0.0000  0.0000
 2706SOL    HW220439   0.125   4.868  14.327  0.0000  0.0000  0.0000
 2706SOL     MW20440   0.136   4.910  14.403  0.0000  0.0000  0.0000
 2707SOL     OW20441   2.101   6.273   9.600  0.0000  0.0000  0.0000
 2707SOL    HW120442   2.102   6.356   9.648  0.0000  0.0000  0.0000
 2707SOL    HW220443   2.142   6.210   9.660  0.0000  0.0000  0.0000
 2707SOL     MW20444   2.107   6.276   9.614  0.0000  0.0000  0.0000
 2708SOL     OW20445   0.125   2.633  10.210  0.0000  0.0000  0.0000
 2708SOL    HW120446   0.098   2.541  10.213  0.0000  0.0000  0.0000
 2708SOL    HW220447   0.205   2.636  10.263  0.0000  0.0000  0.0000
 2708SOL     MW20448   0.132   2.621  10.217  0.0000  0.0000  0.0000
 2709SOL     OW20449   4.469   6.053  13.181  0.0000  0.0000  0.0000
 2709SOL    HW120450   4.523   5.987  13.224  0.0000  0.0000  0.0000
 2709SOL    HW220451   4.414   6.003  13.121  0.0000  0.0000  0.0000
 2709SOL     MW20452   4.469   6.037  13.179  0.0000  0.0000  0.0000
 2710SOL     OW20453   3.980   6.056  14.221  0.0000  0.0000  0.0000
 2710SOL    HW120454   3.967   6.101  14.137  0.0000  0.0000  0.0000
 2710SOL    HW220455   3.891   6.039  14.253  0.0000  0.0000  0.0000
 2710SOL     MW20456   3.966   6.060  14.214  0.0000  0.0000  0.0000
 2711SOL     OW20457   2.522   2.975  14.171  0.0000  0.0000  0.0000
 2711SOL    HW120458   2.614   2.971  14.197  0.0000  0.0000  0.0000
 2711SOL    HW220459   2.525   3.000  14.078  0.0000  0.0000  0.0000
 2711SOL     MW20460   2.535   2.978  14.162  0.0000  0.0000  0.0000
 2712SOL     OW20461   2.693   6.591  13.851  0.0000  0.0000  0.0000
 2712SOL    HW120462   2.776   6.626  13.818  0.0000  0.0000  0.0000
 2712SOL    HW220463   2.682   6.631  13.937  0.0000  0.0000  0.0000
 2712SOL     MW20464   2.703   6.601  13.858  0.0000  0.0000  0.0000
 2713SOL     OW20465   1.072   3.925   9.626  0.0000  0.0000  0.0000
 2713SOL    HW120466   1.073   3.883   9.712  0.0000  0.0000  0.0000
 2713SOL    HW220467   1.006   3.876   9.577  0.0000  0.0000  0.0000
 2713SOL     MW20468   1.063   3.913   9.631  0.0000  0.0000  0.0000
 2714SOL     OW20469   4.122   3.066   9.672  0.0000  0.0000  0.0000
 2714SOL    HW120470   4.150   3.074   9.763  0.0000  0.0000  0.0000
 2714SOL    HW220471   4.186   3.006   9.633  0.0000  0.0000  0.0000
 2714SOL     MW20472   4.135   3.059   9.679  0.0000  0.0000  0.0000
 2715SOL     OW20473   2.137   6.718  12.048  0.0000  0.0000  0.0000
 2715SOL    HW120474   2.106   6.795  12.095  0.0000  0.0000  0.0000
 2715SOL    HW220475   2.182   6.754  11.971  0.0000  0.0000  0.0000
 2715SOL     MW20476   2.139   6.733  12.044  0.0000  0.0000  0.0000
 2716SOL     OW20477   1.562   6.486  14.046  0.0000  0.0000  0.0000
 2716SOL    HW120478   1.610   6.405  14.025  0.0000  0.0000  0.0000
 2716SOL    HW220479   1.596   6.512  14.131  0.0000  0.0000  0.0000
 2716SOL     MW20480   1.573   6.479  14.054  0.0000  0.0000  0.0000
 2717SOL     OW20481   0.113   6.866   9.797  0.0000  0.0000  0.0000
 2717SOL    HW120482   0.154   6.925   9.734  0.0000  0.0000  0.0000
 2717SOL    HW220483   0.167   6.787   9.794  0.0000  0.0000  0.0000
 2717SOL     MW20484   0.126   6.863   9.788  0.0000  0.0000  0.0000
 2718SOL     OW20485   4.147   2.963  10.992  0.0000  0.0000  0.0000
 2718SOL    HW120486   4.190   2.975  10.908  0.0000  0.0000  0.0000
 2718SOL    HW220487   4.169   3.042  11.042  0.0000  0.0000  0.0000
 2718SOL     MW20488   4.156   2.975  10.988  0.0000  0.0000  0.0000
 2719SOL     OW20489   0.334   3.678  13.018  0.0000  0.0000  0.0000
 2719SOL    HW120490   0.304   3.695  13.107  0.0000  0.0000  0.0000
 2719SOL    HW220491   0.255   3.682  12.964  0.0000  0.0000  0.0000
 2719SOL     MW20492   0.320   3.680  13.023  0.0000  0.0000  0.0000
 2720SOL     OW20493   4.057   4.115  12.310  0.0000  0.0000  0.0000
 2720SOL    HW120494   4.030   4.205  12.291  0.0000  0.0000  0.0000
 2720SOL    HW220495   4.031   4.100  12.401  0.0000  0.0000  0.0000
 2720SOL     MW20496   4.050   4.125  12.319  0.0000  0.0000  0.0000
 2721SOL     OW20497   4.428   3.942  13.352  0.0000  0.0000  0.0000
 2721SOL    HW120498   4.500   4.004  13.347  0.0000  0.0000  0.0000
 2721SOL    HW220499   4.445   3.892  13.432  0.0000  0.0000  0.0000
 2721SOL     MW20500   4.440   3.944  13.362  0.0000  0.0000  0.0000
 2722SOL     OW20501   4.019   5.187  14.592  0.0000  0.0000  0.0000
 2722SOL    HW120502   3.951   5.146  14.538  0.0000  0.0000  0.0000
 2722SOL    HW220503   4.096   5.132  14.581  0.0000  0.0000  0.0000
 2722SOL     MW20504   4.020   5.175  14.583  0.0000  0.0000  0.0000
 2723SOL     OW20505   4.540   4.762  14.514  0.0000  0.0000  0.0000
 2723SOL    HW120506   4.610   4.824  14.493  0.0000  0.0000  0.0000
 2723SOL    HW220507   4.492   4.803  14.586  0.0000  0.0000  0.0000
 2723SOL     MW20508   4.543   4.775  14.521  0.0000  0.0000  0.0000
 2724SOL     OW20509   0.681   4.126  12.056  0.0000  0.0000  0.0000
 2724SOL    HW120510   0.744   4.131  11.983  0.0000  0.0000  0.0000
 2724SOL    HW220511   0.643   4.213  12.060  0.0000  0.0000  0.0000
 2724SOL     MW20512   0.684   4.138  12.047  0.0000  0.0000  0.0000
 2725SOL     OW20513   3.848   3.737  13.411  0.0000  0.0000  0.0000
 2725SOL    HW120514   3.793   3.709  13.338  0.0000  0.0000  0.0000
 2725SOL    HW220515   3.799   3.809  13.452  0.0000  0.0000  0.0000
 2725SOL     MW20516   3.834   3.743  13.407  0.0000  0.0000  0.0000
 2726SOL     OW20517   4.335   2.759  12.469  0.0000  0.0000  0.0000
 2726SOL    HW120518   4.257   2.801  12.505  0.0000  0.0000  0.0000
 2726SOL    HW220519   4.303   2.679  12.428  0.0000  0.0000  0.0000
 2726SOL     MW20520   4.321   2.754  12.468  0.0000  0.0000  0.0000
 2727SOL     OW20521   4.298   3.547  12.640  0.0000  0.0000  0.0000
 2727SOL    HW120522   4.368   3.590  12.690  0.0000  0.0000  0.0000
 2727SOL    HW220523   4.224   3.607  12.647  0.0000  0.0000  0.0000
 2727SOL     MW20524   4.298   3.561  12.648  0.0000  0.0000  0.0000
 2728SOL     OW20525   1.943   3.024  13.736  0.0000  0.0000  0.0000
 2728SOL    HW120526   1.928   2.943  13.687  0.0000  0.0000  0.0000
 2728SOL    HW220527   1.862   3.073  13.725  0.0000  0.0000  0.0000
 2728SOL     MW20528   1.930   3.019  13.728  0.0000  0.0000  0.0000
 2729SOL     OW20529   2.659   6.382  14.573  0.0000  0.0000  0.0000
 2729SOL    HW120530   2.607   6.305  14.594  0.0000  0.0000  0.0000
 2729SOL    HW220531   2.643   6.398  14.480  0.0000  0.0000  0.0000
 2729SOL     MW20532   2.650   6.374  14.563  0.0000  0.0000  0.0000
 2730SOL     OW20533   0.189   6.801  10.103  0.0000  0.0000  0.0000
 2730SOL    HW120534   0.148   6.884  10.127  0.0000  0.0000  0.0000
 2730SOL    HW220535   0.179   6.746  10.180  0.0000  0.0000  0.0000
 2730SOL     MW20536   0.182   6.805  10.116  0.0000  0.0000  0.0000
 2731SOL     OW20537   3.201   4.229  14.396  0.0000  0.0000  0.0000
 2731SOL    HW120538   3.178   4.287  14.323  0.0000  0.0000  0.0000
 2731SOL    HW220539   3.122   4.225  14.449  0.0000  0.0000  0.0000
 2731SOL     MW20540   3.188   4.236  14.393  0.0000  0.0000  0.0000
 2732SOL     OW20541   4.098   5.513  14.353  0.0000  0.0000  0.0000
 2732SOL    HW120542   4.186   5.478  14.339  0.0000  0.0000  0.0000
 2732SOL    HW220543   4.093   5.529  14.447  0.0000  0.0000  0.0000
 2732SOL     MW20544   4.109   5.510  14.363  0.0000  0.0000  0.0000
 2733SOL     OW20545   4.506   4.215  13.210  0.0000  0.0000  0.0000
 2733SOL    HW120546   4.480   4.254  13.294  0.0000  0.0000  0.0000
 2733SOL    HW220547   4.425   4.177  13.176  0.0000  0.0000  0.0000
 2733SOL     MW20548   4.492   4.215  13.217  0.0000  0.0000  0.0000
 2734SOL     OW20549   2.508   6.835  13.397  0.0000  0.0000  0.0000
 2734SOL    HW120550   2.453   6.790  13.333  0.0000  0.0000  0.0000
 2734SOL    HW220551   2.526   6.769  13.463  0.0000  0.0000  0.0000
 2734SOL     MW20552   2.503   6.820  13.397  0.0000  0.0000  0.0000
 2735SOL     OW20553   2.143   5.699   9.886  0.0000  0.0000  0.0000
 2735SOL    HW120554   2.136   5.604   9.873  0.0000  0.0000  0.0000
 2735SOL    HW220555   2.172   5.709   9.976  0.0000  0.0000  0.0000
 2735SOL     MW20556   2.146   5.688   9.896  0.0000  0.0000  0.0000
 2736SOL     OW20557   4.438   6.197  11.520  0.0000  0.0000  0.0000
 2736SOL    HW120558   4.404   6.284  11.543  0.0000  0.0000  0.0000
 2736SOL    HW220559   4.426   6.191  11.425  0.0000  0.0000  0.0000
 2736SOL     MW20560   4.432   6.208  11.510  0.0000  0.0000  0.0000
 2737SOL     OW20561   1.191   3.988  11.200  0.0000  0.0000  0.0000
 2737SOL    HW120562   1.198   3.965  11.107  0.0000  0.0000  0.0000
 2737SOL    HW220563   1.098   3.973  11.220  0.0000  0.0000  0.0000
 2737SOL     MW20564   1.179   3.983  11.190  0.0000  0.0000  0.0000
 2738SOL     OW20565   1.890   5.814   9.890  0.0000  0.0000  0.0000
 2738SOL    HW120566   1.836   5.759   9.947  0.0000  0.0000  0.0000
 2738SOL    HW220567   1.974   5.767   9.885  0.0000  0.0000  0.0000
 2738SOL     MW20568   1.894   5.800   9.897  0.0000  0.0000  0.0000
 2739SOL     OW20569   3.836   7.034  11.293  0.0000  0.0000  0.0000
 2739SOL    HW120570   3.904   6.983  11.337  0.0000  0.0000  0.0000
 2739SOL    HW220571   3.849   7.017  11.200  0.0000  0.0000  0.0000
 2739SOL     MW20572   3.846   7.025  11.287  0.0000  0.0000  0.0000
 2740SOL     OW20573   4.379   6.301  13.268  0.0000  0.0000  0.0000
 2740SOL    HW120574   4.345   6.293  13.357  0.0000  0.0000  0.0000
 2740SOL    HW220575   4.407   6.213  13.244  0.0000  0.0000  0.0000
 2740SOL     MW20576   4.378   6.289  13.277  0.0000  0.0000  0.0000
 2741SOL     OW20577   3.900   3.459  13.441  0.0000  0.0000  0.0000
 2741SOL    HW120578   3.897   3.551  13.414  0.0000  0.0000  0.0000
 2741SOL    HW220579   3.921   3.412  13.360  0.0000  0.0000  0.0000
 2741SOL     MW20580   3.903   3.465  13.426  0.0000  0.0000  0.0000
 2742SOL     OW20581   1.748   3.922  10.145  0.0000  0.0000  0.0000
 2742SOL    HW120582   1.658   3.944  10.124  0.0000  0.0000  0.0000
 2742SOL    HW220583   1.766   3.842  10.097  0.0000  0.0000  0.0000
 2742SOL     MW20584   1.739   3.914  10.136  0.0000  0.0000  0.0000
 2743SOL     OW20585   1.068   4.168  12.273  0.0000  0.0000  0.0000
 2743SOL    HW120586   1.105   4.132  12.192  0.0000  0.0000  0.0000
 2743SOL    HW220587   0.979   4.133  12.277  0.0000  0.0000  0.0000
 2743SOL     MW20588   1.061   4.159  12.263  0.0000  0.0000  0.0000
 2744SOL     OW20589   3.905   3.357  13.692  0.0000  0.0000  0.0000
 2744SOL    HW120590   3.892   3.376  13.599  0.0000  0.0000  0.0000
 2744SOL    HW220591   3.818   3.330  13.723  0.0000  0.0000  0.0000
 2744SOL     MW20592   3.892   3.356  13.684  0.0000  0.0000  0.0000
 2745SOL     OW20593   4.417   2.922  14.293  0.0000  0.0000  0.0000
 2745SOL    HW120594   4.354   2.992  14.306  0.0000  0.0000  0.0000
 2745SOL    HW220595   4.495   2.965  14.257  0.0000  0.0000  0.0000
 2745SOL     MW20596   4.419   2.937  14.290  0.0000  0.0000  0.0000
 2746SOL     OW20597   2.975   2.631   9.826  0.0000  0.0000  0.0000
 2746SOL    HW120598   2.917   2.605   9.897  0.0000  0.0000  0.0000
 2746SOL    HW220599   2.927   2.699   9.779  0.0000  0.0000  0.0000
 2746SOL     MW20600   2.961   2.636   9.829  0.0000  0.0000  0.0000
 2747SOL     OW20601   1.972   4.435  14.033  0.0000  0.0000  0.0000
 2747SOL    HW120602   1.882   4.406  14.018  0.0000  0.0000  0.0000
 2747SOL    HW220603   2.015   4.361  14.076  0.0000  0.0000  0.0000
 2747SOL     MW20604   1.966   4.422  14.037  0.0000  0.0000  0.0000
 2748SOL     OW20605   3.805   4.143  14.462  0.0000  0.0000  0.0000
 2748SOL    HW120606   3.759   4.226  14.459  0.0000  0.0000  0.0000
 2748SOL    HW220607   3.737   4.077  14.445  0.0000  0.0000  0.0000
 2748SOL     MW20608   3.790   4.145  14.459  0.0000  0.0000  0.0000
 2749SOL     OW20609   3.896   5.413  11.395  0.0000  0.0000  0.0000
 2749SOL    HW120610   3.944   5.457  11.465  0.0000  0.0000  0.0000
 2749SOL    HW220611   3.813   5.387  11.436  0.0000  0.0000  0.0000
 2749SOL     MW20612   3.891   5.416  11.410  0.0000  0.0000  0.0000
 2750SOL     OW20613   0.512   4.403  10.895  0.0000  0.0000  0.0000
 2750SOL    HW120614   0.490   4.491  10.928  0.0000  0.0000  0.0000
 2750SOL    HW220615   0.443   4.384  10.832  0.0000  0.0000  0.0000
 2750SOL     MW20616   0.500   4.412  10.891  0.0000  0.0000  0.0000
 2751SOL     OW20617   0.410   5.545  11.126  0.0000  0.0000  0.0000
 2751SOL    HW120618   0.502   5.561  11.104  0.0000  0.0000  0.0000
 2751SOL    HW220619   0.384   5.622  11.176  0.0000  0.0000  0.0000
 2751SOL     MW20620   0.419   5.557  11.130  0.0000  0.0000  0.0000
 2752SOL     OW20621   4.583   6.591  11.353  0.0000  0.0000  0.0000
 2752SOL    HW120622   4.646   6.574  11.423  0.0000  0.0000  0.0000
 2752SOL    HW220623   4.606   6.677  11.320  0.0000  0.0000  0.0000
 2752SOL     MW20624   4.594   6.600  11.358  0.0000  0.0000  0.0000
 2753SOL     OW20625   0.199   5.387  11.058  0.0000  0.0000  0.0000
 2753SOL    HW120626   0.283   5.432  11.068  0.0000  0.0000  0.0000
 2753SOL    HW220627   0.153   5.404  11.140  0.0000  0.0000  0.0000
 2753SOL     MW20628   0.204   5.395  11.070  0.0000  0.0000  0.0000
 2754SOL     OW20629   0.414   5.901  11.095  0.0000  0.0000  0.0000
 2754SOL    HW120630   0.448   5.874  11.180  0.0000  0.0000  0.0000
 2754SOL    HW220631   0.337   5.846  11.081  0.0000  0.0000  0.0000
 2754SOL     MW20632   0.409   5.890  11.104  0.0000  0.0000  0.0000
 2755SOL     OW20633   3.549   5.962  11.554  0.0000  0.0000  0.0000
 2755SOL    HW120634   3.610   5.921  11.615  0.0000  0.0000  0.0000
 2755SOL    HW220635   3.482   6.002  11.610  0.0000  0.0000  0.0000
 2755SOL     MW20636   3.548   5.962  11.569  0.0000  0.0000  0.0000
 2756SOL     OW20637   2.336   6.492  14.137  0.0000  0.0000  0.0000
 2756SOL    HW120638   2.293   6.575  14.119  0.0000  0.0000  0.0000
 2756SOL    HW220639   2.268   6.426  14.119  0.0000  0.0000  0.0000
 2756SOL     MW20640   2.321   6.494  14.132  0.0000  0.0000  0.0000
 2757SOL     OW20641   0.319   3.067   9.910  0.0000  0.0000  0.0000
 2757SOL    HW120642   0.339   3.009   9.984  0.0000  0.0000  0.0000
 2757SOL    HW220643   0.226   3.088   9.921  0.0000  0.0000  0.0000
 2757SOL     MW20644   0.309   3.062   9.921  0.0000  0.0000  0.0000
 2758SOL     OW20645   3.925   3.823  10.241  0.0000  0.0000  0.0000
 2758SOL    HW120646   3.944   3.873  10.163  0.0000  0.0000  0.0000
 2758SOL    HW220647   3.991   3.851  10.305  0.0000  0.0000  0.0000
 2758SOL     MW20648   3.936   3.833  10.239  0.0000  0.0000  0.0000
 2759SOL     OW20649   4.066   6.116  10.523  0.0000  0.0000  0.0000
 2759SOL    HW120650   4.070   6.067  10.440  0.0000  0.0000  0.0000
 2759SOL    HW220651   4.103   6.056  10.588  0.0000  0.0000  0.0000
 2759SOL     MW20652   4.071   6.101  10.520  0.0000  0.0000  0.0000
 2760SOL     OW20653   0.860   6.535  12.357  0.0000  0.0000  0.0000
 2760SOL    HW120654   0.936   6.545  12.299  0.0000  0.0000  0.0000
 2760SOL    HW220655   0.810   6.616  12.346  0.0000  0.0000  0.0000
 2760SOL     MW20656   0.864   6.547  12.348  0.0000  0.0000  0.0000
 2761SOL     OW20657   1.333   6.427  10.857  0.0000  0.0000  0.0000
 2761SOL    HW120658   1.329   6.522  10.861  0.0000  0.0000  0.0000
 2761SOL    HW220659   1.285   6.404  10.777  0.0000  0.0000  0.0000
 2761SOL     MW20660   1.326   6.436  10.847  0.0000  0.0000  0.0000
 2762SOL     OW20661   1.532   3.705  10.363  0.0000  0.0000  0.0000
 2762SOL    HW120662   1.515   3.771  10.296  0.0000  0.0000  0.0000
 2762SOL    HW220663   1.623   3.678  10.349  0.0000  0.0000  0.0000
 2762SOL     MW20664   1.542   3.710  10.352  0.0000  0.0000  0.0000
 2763SOL     OW20665   3.347   3.992   9.703  0.0000  0.0000  0.0000
 2763SOL    HW120666   3.291   4.007   9.627  0.0000  0.0000  0.0000
 2763SOL    HW220667   3.398   4.073   9.712  0.0000  0.0000  0.0000
 2763SOL     MW20668   3.346   4.005   9.694  0.0000  0.0000  0.0000
 2764SOL     OW20669   0.815   5.037  11.972  0.0000  0.0000  0.0000
 2764SOL    HW120670   0.744   4.985  12.010  0.0000  0.0000  0.0000
 2764SOL    HW220671   0.895   4.996  12.005  0.0000  0.0000  0.0000
 2764SOL     MW20672   0.816   5.025  11.982  0.0000  0.0000  0.0000
 2765SOL     OW20673   4.399   4.002  12.591  0.0000  0.0000  0.0000
 2765SOL    HW120674   4.465   4.068  12.571  0.0000  0.0000  0.0000
 2765SOL    HW220675   4.449   3.922  12.605  0.0000  0.0000  0.0000
 2765SOL     MW20676   4.414   4.000  12.590  0.0000  0.0000  0.0000
 2766SOL     OW20677   0.334   7.166  13.957  0.0000  0.0000  0.0000
 2766SOL    HW120678   0.408   7.158  13.898  0.0000  0.0000  0.0000
 2766SOL    HW220679   0.360   7.115  14.034  0.0000  0.0000  0.0000
 2766SOL     MW20680   0.347   7.158  13.960  0.0000  0.0000  0.0000
 2767SOL     OW20681   4.166   5.083  11.207  0.0000  0.0000  0.0000
 2767SOL    HW120682   4.127   5.129  11.281  0.0000  0.0000  0.0000
 2767SOL    HW220683   4.255   5.063  11.235  0.0000  0.0000  0.0000
 2767SOL     MW20684   4.173   5.087  11.220  0.0000  0.0000  0.0000
 2768SOL     OW20685   3.913   5.116   9.968  0.0000  0.0000  0.0000
 2768SOL    HW120686   3.885   5.196   9.924  0.0000  0.0000  0.0000
 2768SOL    HW220687   3.884   5.045   9.910  0.0000  0.0000  0.0000
 2768SOL     MW20688   3.905   5.117   9.955  0.0000  0.0000  0.0000
 2769SOL     OW20689   3.477   5.155  12.207  0.0000  0.0000  0.0000
 2769SOL    HW120690   3.412   5.181  12.272  0.0000  0.0000  0.0000
 2769SOL    HW220691   3.444   5.072  12.172  0.0000  0.0000  0.0000
 2769SOL     MW20692   3.464   5.148  12.211  0.0000  0.0000  0.0000
 2770SOL     OW20693   1.815   3.647  11.189  0.0000  0.0000  0.0000
 2770SOL    HW120694   1.849   3.709  11.124  0.0000  0.0000  0.0000
 2770SOL    HW220695   1.727   3.678  11.209  0.0000  0.0000  0.0000
 2770SOL     MW20696   1.808   3.660  11.183  0.0000  0.0000  0.0000
 2771SOL     OW20697   3.890   5.193  13.019  0.0000  0.0000  0.0000
 2771SOL    HW120698   3.806   5.149  13.008  0.0000  0.0000  0.0000
 2771SOL    HW220699   3.915   5.175  13.109  0.0000  0.0000  0.0000
 2771SOL     MW20700   3.882   5.185  13.029  0.0000  0.0000  0.0000
 2772SOL     OW20701   1.585   2.840  11.608  0.0000  0.0000  0.0000
 2772SOL    HW120702   1.538   2.923  11.617  0.0000  0.0000  0.0000
 2772SOL    HW220703   1.551   2.802  11.527  0.0000  0.0000  0.0000
 2772SOL     MW20704   1.574   2.846  11.598  0.0000  0.0000  0.0000
 2773SOL     OW20705   2.520   6.264  10.457  0.0000  0.0000  0.0000
 2773SOL    HW120706   2.534   6.238  10.548  0.0000  0.0000  0.0000
 2773SOL    HW220707   2.469   6.345  10.464  0.0000  0.0000  0.0000
 2773SOL     MW20708   2.515   6.271  10.470  0.0000  0.0000  0.0000
 2774SOL     OW20709   1.312   7.103  11.867  0.0000  0.0000  0.0000
 2774SOL    HW120710   1.305   7.065  11.780  0.0000  0.0000  0.0000
 2774SOL    HW220711   1.342   7.193  11.852  0.0000  0.0000  0.0000
 2774SOL     MW20712   1.315   7.110  11.854  0.0000  0.0000  0.0000
 2775SOL     OW20713   4.192   5.384  12.119  0.0000  0.0000  0.0000
 2775SOL    HW120714   4.249   5.317  12.155  0.0000  0.0000  0.0000
 2775SOL    HW220715   4.103   5.353  12.139  0.0000  0.0000  0.0000
 2775SOL     MW20716   4.188   5.371  12.126  0.0000  0.0000  0.0000
 2776SOL     OW20717   3.833   4.692  13.504  0.0000  0.0000  0.0000
 2776SOL    HW120718   3.781   4.629  13.553  0.0000  0.0000  0.0000
 2776SOL    HW220719   3.906   4.641  13.469  0.0000  0.0000  0.0000
 2776SOL     MW20720   3.836   4.677  13.506  0.0000  0.0000  0.0000
 2777SOL     OW20721   2.872   4.811   9.991  0.0000  0.0000  0.0000
 2777SOL    HW120722   2.863   4.726  10.034  0.0000  0.0000  0.0000
 2777SOL    HW220723   2.802   4.813   9.926  0.0000  0.0000  0.0000
 2777SOL     MW20724   2.862   4.800   9.988  0.0000  0.0000  0.0000
 2778SOL     OW20725   0.039   3.154  10.094  0.0000  0.0000  0.0000
 2778SOL    HW120726  -0.044   3.196  10.071  0.0000  0.0000  0.0000
 2778SOL    HW220727   0.017   3.061  10.102  0.0000  0.0000  0.0000
 2778SOL     MW20728   0.025   3.147  10.092  0.0000  0.0000  0.0000
 2779SOL     OW20729   3.272   6.136  13.889  0.0000  0.0000  0.0000
 2779SOL    HW120730   3.209   6.119  13.959  0.0000  0.0000  0.0000
 2779SOL    HW220731   3.218   6.165  13.815  0.0000  0.0000  0.0000
 2779SOL     MW20732   3.256   6.138  13.888  0.0000  0.0000  0.0000
 2780SOL     OW20733   2.117   3.307  14.293  0.0000  0.0000  0.0000
 2780SOL    HW120734   2.170   3.386  14.283  0.0000  0.0000  0.0000
 2780SOL    HW220735   2.180   3.235  14.291  0.0000  0.0000  0.0000
 2780SOL     MW20736   2.132   3.308  14.292  0.0000  0.0000  0.0000
 2781SOL     OW20737   1.552   6.383  10.301  0.0000  0.0000  0.0000
 2781SOL    HW120738   1.467   6.410  10.266  0.0000  0.0000  0.0000
 2781SOL    HW220739   1.561   6.292  10.272  0.0000  0.0000  0.0000
 2781SOL     MW20740   1.542   6.374  10.292  0.0000  0.0000  0.0000
 2782SOL     OW20741   3.124   4.410  14.209  0.0000  0.0000  0.0000
 2782SOL    HW120742   3.137   4.499  14.242  0.0000  0.0000  0.0000
 2782SOL    HW220743   3.029   4.403  14.196  0.0000  0.0000  0.0000
 2782SOL     MW20744   3.113   4.421  14.212  0.0000  0.0000  0.0000
 2783SOL     OW20745   0.775   4.787  14.260  0.0000  0.0000  0.0000
 2783SOL    HW120746   0.753   4.869  14.305  0.0000  0.0000  0.0000
 2783SOL    HW220747   0.718   4.785  14.184  0.0000  0.0000  0.0000
 2783SOL     MW20748   0.765   4.798  14.256  0.0000  0.0000  0.0000
 2784SOL     OW20749   1.835   2.651  14.518  0.0000  0.0000  0.0000
 2784SOL    HW120750   1.917   2.671  14.563  0.0000  0.0000  0.0000
 2784SOL    HW220751   1.791   2.589  14.575  0.0000  0.0000  0.0000
 2784SOL     MW20752   1.840   2.646  14.531  0.0000  0.0000  0.0000
 2785SOL     OW20753   0.055   5.139  14.527  0.0000  0.0000  0.0000
 2785SOL    HW120754   0.110   5.212  14.497  0.0000  0.0000  0.0000
 2785SOL    HW220755   0.087   5.063  14.480  0.0000  0.0000  0.0000
 2785SOL     MW20756   0.066   5.139  14.517  0.0000  0.0000  0.0000
 2786SOL     OW20757   2.844   3.629  10.081  0.0000  0.0000  0.0000
 2786SOL    HW120758   2.802   3.593  10.159  0.0000  0.0000  0.0000
 2786SOL    HW220759   2.916   3.683  10.114  0.0000  0.0000  0.0000
 2786SOL     MW20760   2.848   3.631  10.095  0.0000  0.0000  0.0000
 2787SOL     OW20761   1.048   7.169  10.066  0.0000  0.0000  0.0000
 2787SOL    HW120762   1.137   7.145  10.093  0.0000  0.0000  0.0000
 2787SOL    HW220763   1.040   7.134   9.977  0.0000  0.0000  0.0000
 2787SOL     MW20764   1.059   7.162  10.058  0.0000  0.0000  0.0000
 2788SOL     OW20765   4.181   3.067  14.350  0.0000  0.0000  0.0000
 2788SOL    HW120766   4.192   3.058  14.445  0.0000  0.0000  0.0000
 2788SOL    HW220767   4.196   3.161  14.334  0.0000  0.0000  0.0000
 2788SOL     MW20768   4.185   3.078  14.360  0.0000  0.0000  0.0000
 2789SOL     OW20769   0.313   2.760  14.093  0.0000  0.0000  0.0000
 2789SOL    HW120770   0.331   2.679  14.046  0.0000  0.0000  0.0000
 2789SOL    HW220771   0.219   2.774  14.082  0.0000  0.0000  0.0000
 2789SOL     MW20772   0.303   2.751  14.086  0.0000  0.0000  0.0000
 2790SOL     OW20773   1.326   7.179   9.909  0.0000  0.0000  0.0000
 2790SOL    HW120774   1.342   7.211   9.820  0.0000  0.0000  0.0000
 2790SOL    HW220775   1.404   7.127   9.930  0.0000  0.0000  0.0000
 2790SOL     MW20776   1.339   7.176   9.900  0.0000  0.0000  0.0000
 2791SOL     OW20777   4.426   6.457  11.545  0.0000  0.0000  0.0000
 2791SOL    HW120778   4.468   6.499  11.470  0.0000  0.0000  0.0000
 2791SOL    HW220779   4.466   6.498  11.621  0.0000  0.0000  0.0000
 2791SOL     MW20780   4.437   6.468  11.545  0.0000  0.0000  0.0000
 2792SOL     OW20781   1.901   4.088   9.989  0.0000  0.0000  0.0000
 2792SOL    HW120782   1.972   4.025   9.978  0.0000  0.0000  0.0000
 2792SOL    HW220783   1.833   4.040  10.036  0.0000  0.0000  0.0000
 2792SOL     MW20784   1.902   4.073   9.994  0.0000  0.0000  0.0000
 2793SOL     OW20785   3.875   3.089  14.498  0.0000  0.0000  0.0000
 2793SOL    HW120786   3.872   3.110  14.405  0.0000  0.0000  0.0000
 2793SOL    HW220787   3.784   3.072  14.522  0.0000  0.0000  0.0000
 2793SOL     MW20788   3.863   3.090  14.489  0.0000  0.0000  0.0000
 2794SOL     OW20789   2.606   6.846   9.670  0.0000  0.0000  0.0000
 2794SOL    HW120790   2.611   6.883   9.758  0.0000  0.0000  0.0000
 2794SOL    HW220791   2.670   6.775   9.670  0.0000  0.0000  0.0000
 2794SOL     MW20792   2.615   6.842   9.682  0.0000  0.0000  0.0000
 2795SOL     OW20793   1.236   3.959  10.938  0.0000  0.0000  0.0000
 2795SOL    HW120794   1.153   3.979  10.894  0.0000  0.0000  0.0000
 2795SOL    HW220795   1.245   3.864  10.929  0.0000  0.0000  0.0000
 2795SOL     MW20796   1.226   3.949  10.931  0.0000  0.0000  0.0000
 2796SOL     OW20797   2.382   2.736  10.417  0.0000  0.0000  0.0000
 2796SOL    HW120798   2.308   2.725  10.476  0.0000  0.0000  0.0000
 2796SOL    HW220799   2.381   2.829  10.394  0.0000  0.0000  0.0000
 2796SOL     MW20800   2.372   2.747  10.422  0.0000  0.0000  0.0000
 2797SOL     OW20801   1.935   2.873  10.610  0.0000  0.0000  0.0000
 2797SOL    HW120802   1.862   2.931  10.585  0.0000  0.0000  0.0000
 2797SOL    HW220803   2.002   2.932  10.645  0.0000  0.0000  0.0000
 2797SOL     MW20804   1.934   2.889  10.611  0.0000  0.0000  0.0000
 2798SOL     OW20805   0.803   5.132  11.722  0.0000  0.0000  0.0000
 2798SOL    HW120806   0.810   5.104  11.814  0.0000  0.0000  0.0000
 2798SOL    HW220807   0.772   5.222  11.727  0.0000  0.0000  0.0000
 2798SOL     MW20808   0.800   5.140  11.735  0.0000  0.0000  0.0000
 2799SOL     OW20809   3.149   3.450  10.388  0.0000  0.0000  0.0000
 2799SOL    HW120810   3.168   3.518  10.323  0.0000  0.0000  0.0000
 2799SOL    HW220811   3.123   3.374  10.335  0.0000  0.0000  0.0000
 2799SOL     MW20812   3.148   3.449  10.372  0.0000  0.0000  0.0000
 2800SOL     OW20813   0.977   3.685  10.745  0.0000  0.0000  0.0000
 2800SOL    HW120814   0.900   3.740  10.732  0.0000  0.0000  0.0000
 2800SOL    HW220815   0.945   3.612  10.798  0.0000  0.0000  0.0000
 2800SOL     MW20816   0.963   3.683  10.750  0.0000  0.0000  0.0000
 2801SOL     OW20817   1.046   2.612  11.790  0.0000  0.0000  0.0000
 2801SOL    HW120818   1.130   2.587  11.751  0.0000  0.0000  0.0000
 2801SOL    HW220819   1.040   2.559  11.869  0.0000  0.0000  0.0000
 2801SOL     MW20820   1.057   2.602  11.795  0.0000  0.0000  0.0000
 2802SOL     OW20821   0.543   4.312  13.622  0.0000  0.0000  0.0000
 2802SOL    HW120822   0.579   4.254  13.555  0.0000  0.0000  0.0000
 2802SOL    HW220823   0.455   4.279  13.638  0.0000  0.0000  0.0000
 2802SOL     MW20824   0.536   4.300  13.615  0.0000  0.0000  0.0000
 2803SOL     OW20825   0.693   6.148  12.554  0.0000  0.0000  0.0000
 2803SOL    HW120826   0.615   6.104  12.520  0.0000  0.0000  0.0000
 2803SOL    HW220827   0.739   6.180  12.477  0.0000  0.0000  0.0000
 2803SOL     MW20828   0.689   6.146  12.540  0.0000  0.0000  0.0000
 2804SOL     OW20829   2.916   3.660  14.428  0.0000  0.0000  0.0000
 2804SOL    HW120830   2.826   3.672  14.399  0.0000  0.0000  0.0000
 2804SOL    HW220831   2.913   3.674  14.522  0.0000  0.0000  0.0000
 2804SOL     MW20832   2.904   3.663  14.436  0.0000  0.0000  0.0000
 2805SOL     OW20833   3.972   5.722  14.236  0.0000  0.0000  0.0000
 2805SOL    HW120834   3.997   5.633  14.260  0.0000  0.0000  0.0000
 2805SOL    HW220835   3.922   5.755  14.311  0.0000  0.0000  0.0000
 2805SOL     MW20836   3.968   5.715  14.249  0.0000  0.0000  0.0000
 2806SOL     OW20837   0.686   5.618  11.130  0.0000  0.0000  0.0000
 2806SOL    HW120838   0.731   5.568  11.062  0.0000  0.0000  0.0000
 2806SOL    HW220839   0.749   5.625  11.201  0.0000  0.0000  0.0000
 2806SOL     MW20840   0.700   5.613  11.130  0.0000  0.0000  0.0000
 2807SOL     OW20841   4.025   3.331  11.068  0.0000  0.0000  0.0000
 2807SOL    HW120842   3.931   3.312  11.067  0.0000  0.0000  0.0000
 2807SOL    HW220843   4.032   3.415  11.113  0.0000  0.0000  0.0000
 2807SOL     MW20844   4.013   3.340  11.074  0.0000  0.0000  0.0000
 2808SOL     OW20845   2.138   5.848  14.285  0.0000  0.0000  0.0000
 2808SOL    HW120846   2.114   5.846  14.378  0.0000  0.0000  0.0000
 2808SOL    HW220847   2.231   5.823  14.284  0.0000  0.0000  0.0000
 2808SOL     MW20848   2.148   5.844  14.297  0.0000  0.0000  0.0000
 2809SOL     OW20849   2.663   2.638  13.227  0.0000  0.0000  0.0000
 2809SOL    HW120850   2.679   2.546  13.208  0.0000  0.0000  0.0000
 2809SOL    HW220851   2.624   2.638  13.314  0.0000  0.0000  0.0000
 2809SOL     MW20852   2.660   2.626  13.236  0.0000  0.0000  0.0000
 2810SOL     OW20853   4.159   6.152  12.298  0.0000  0.0000  0.0000
 2810SOL    HW120854   4.128   6.126  12.384  0.0000  0.0000  0.0000
 2810SOL    HW220855   4.146   6.247  12.295  0.0000  0.0000  0.0000
 2810SOL     MW20856   4.153   6.161  12.309  0.0000  0.0000  0.0000
 2811SOL     OW20857   4.594   5.838  10.476  0.0000  0.0000  0.0000
 2811SOL    HW120858   4.670   5.780  10.484  0.0000  0.0000  0.0000
 2811SOL    HW220859   4.567   5.855  10.567  0.0000  0.0000  0.0000
 2811SOL     MW20860   4.600   5.833  10.489  0.0000  0.0000  0.0000
 2812SOL     OW20861   0.228   4.649  13.706  0.0000  0.0000  0.0000
 2812SOL    HW120862   0.273   4.691  13.779  0.0000  0.0000  0.0000
 2812SOL    HW220863   0.294   4.592  13.666  0.0000  0.0000  0.0000
 2812SOL     MW20864   0.242   4.647  13.711  0.0000  0.0000  0.0000
 2813SOL     OW20865   0.557   4.525  13.305  0.0000  0.0000  0.0000
 2813SOL    HW120866   0.500   4.540  13.379  0.0000  0.0000  0.0000
 2813SOL    HW220867   0.577   4.613  13.272  0.0000  0.0000  0.0000
 2813SOL     MW20868   0.552   4.539  13.310  0.0000  0.0000  0.0000
 2814SOL     OW20869   0.208   3.489  10.029  0.0000  0.0000  0.0000
 2814SOL    HW120870   0.162   3.501  10.111  0.0000  0.0000  0.0000
 2814SOL    HW220871   0.289   3.443  10.053  0.0000  0.0000  0.0000
 2814SOL     MW20872   0.213   3.484  10.043  0.0000  0.0000  0.0000
 2815SOL     OW20873   0.908   3.886  13.994  0.0000  0.0000  0.0000
 2815SOL    HW120874   0.867   3.842  14.069  0.0000  0.0000  0.0000
 2815SOL    HW220875   0.925   3.815  13.931  0.0000  0.0000  0.0000
 2815SOL     MW20876   0.905   3.871  13.995  0.0000  0.0000  0.0000
 2816SOL     OW20877   0.167   2.609   9.665  0.0000  0.0000  0.0000
 2816SOL    HW120878   0.138   2.586   9.753  0.0000  0.0000  0.0000
 2816SOL    HW220879   0.237   2.673   9.678  0.0000  0.0000  0.0000
 2816SOL     MW20880   0.173   2.614   9.678  0.0000  0.0000  0.0000
 2817SOL     OW20881   3.072   4.563  13.930  0.0000  0.0000  0.0000
 2817SOL    HW120882   3.147   4.508  13.952  0.0000  0.0000  0.0000
 2817SOL    HW220883   3.013   4.553  14.005  0.0000  0.0000  0.0000
 2817SOL     MW20884   3.074   4.555  13.943  0.0000  0.0000  0.0000
 2818SOL     OW20885   0.938   2.728   9.716  0.0000  0.0000  0.0000
 2818SOL    HW120886   0.844   2.710   9.713  0.0000  0.0000  0.0000
 2818SOL    HW220887   0.955   2.750   9.808  0.0000  0.0000  0.0000
 2818SOL     MW20888   0.928   2.729   9.728  0.0000  0.0000  0.0000
 2819SOL     OW20889   2.569   6.407  14.055  0.0000  0.0000  0.0000
 2819SOL    HW120890   2.480   6.433  14.079  0.0000  0.0000  0.0000
 2819SOL    HW220891   2.598   6.474  13.993  0.0000  0.0000  0.0000
 2819SOL     MW20892   2.561   6.419  14.050  0.0000  0.0000  0.0000
 2820SOL     OW20893   2.481   5.275   9.808  0.0000  0.0000  0.0000
 2820SOL    HW120894   2.406   5.215   9.815  0.0000  0.0000  0.0000
 2820SOL    HW220895   2.485   5.297   9.715  0.0000  0.0000  0.0000
 2820SOL     MW20896   2.471   5.270   9.797  0.0000  0.0000  0.0000
 2821SOL     OW20897   4.625   6.736  14.375  0.0000  0.0000  0.0000
 2821SOL    HW120898   4.656   6.757  14.463  0.0000  0.0000  0.0000
 2821SOL    HW220899   4.542   6.690  14.390  0.0000  0.0000  0.0000
 2821SOL     MW20900   4.618   6.732  14.388  0.0000  0.0000  0.0000
 2822SOL     OW20901   2.863   6.104  14.282  0.0000  0.0000  0.0000
 2822SOL    HW120902   2.820   6.189  14.292  0.0000  0.0000  0.0000
 2822SOL    HW220903   2.936   6.121  14.223  0.0000  0.0000  0.0000
 2822SOL     MW20904   2.867   6.118  14.276  0.0000  0.0000  0.0000
 2823SOL     OW20905   2.823   5.479   9.670  0.0000  0.0000  0.0000
 2823SOL    HW120906   2.767   5.553   9.647  0.0000  0.0000  0.0000
 2823SOL    HW220907   2.795   5.455   9.759  0.0000  0.0000  0.0000
 2823SOL     MW20908   2.812   5.486   9.679  0.0000  0.0000  0.0000
 2824SOL     OW20909   0.297   6.958  14.201  0.0000  0.0000  0.0000
 2824SOL    HW120910   0.348   7.007  14.266  0.0000  0.0000  0.0000
 2824SOL    HW220911   0.329   6.868  14.209  0.0000  0.0000  0.0000
 2824SOL     MW20912   0.308   6.952  14.211  0.0000  0.0000  0.0000
 2825SOL     OW20913   4.645   3.125  14.229  0.0000  0.0000  0.0000
 2825SOL    HW120914   4.627   3.209  14.272  0.0000  0.0000  0.0000
 2825SOL    HW220915   4.735   3.133  14.198  0.0000  0.0000  0.0000
 2825SOL     MW20916   4.655   3.137  14.231  0.0000  0.0000  0.0000
 2826SOL     OW20917   0.536   3.601  14.045  0.0000  0.0000  0.0000
 2826SOL    HW120918   0.543   3.694  14.026  0.0000  0.0000  0.0000
 2826SOL    HW220919   0.621   3.564  14.019  0.0000  0.0000  0.0000
 2826SOL     MW20920   0.548   3.608  14.039  0.0000  0.0000  0.0000
 2827SOL     OW20921   4.083   6.052  13.835  0.0000  0.0000  0.0000
 2827SOL    HW120922   4.036   6.119  13.885  0.0000  0.0000  0.0000
 2827SOL    HW220923   4.068   5.971  13.885  0.0000  0.0000  0.0000
 2827SOL     MW20924   4.075   6.050  13.848  0.0000  0.0000  0.0000
 2828SOL     OW20925   3.598   6.385   9.741  0.0000  0.0000  0.0000
 2828SOL    HW120926   3.605   6.290   9.734  0.0000  0.0000  0.0000
 2828SOL    HW220927   3.684   6.413   9.776  0.0000  0.0000  0.0000
 2828SOL     MW20928   3.610   6.377   9.745  0.0000  0.0000  0.0000
 2829SOL     OW20929   2.554   2.852  12.276  0.0000  0.0000  0.0000
 2829SOL    HW120930   2.515   2.939  12.277  0.0000  0.0000  0.0000
 2829SOL    HW220931   2.605   2.848  12.195  0.0000  0.0000  0.0000
 2829SOL     MW20932   2.555   2.863  12.265  0.0000  0.0000  0.0000
 2830SOL     OW20933   4.314   6.424  13.039  0.0000  0.0000  0.0000
 2830SOL    HW120934   4.220   6.437  13.032  0.0000  0.0000  0.0000
 2830SOL    HW220935   4.325   6.374  13.120  0.0000  0.0000  0.0000
 2830SOL     MW20936   4.303   6.419  13.049  0.0000  0.0000  0.0000
 2831SOL     OW20937   1.988   6.498   9.926  0.0000  0.0000  0.0000
 2831SOL    HW120938   1.913   6.470   9.875  0.0000  0.0000  0.0000
 2831SOL    HW220939   1.966   6.587   9.955  0.0000  0.0000  0.0000
 2831SOL     MW20940   1.975   6.506   9.923  0.0000  0.0000  0.0000
 2832SOL     OW20941   1.762   4.118  14.154  0.0000  0.0000  0.0000
 2832SOL    HW120942   1.721   4.205  14.152  0.0000  0.0000  0.0000
 2832SOL    HW220943   1.856   4.136  14.154  0.0000  0.0000  0.0000
 2832SOL     MW20944   1.769   4.132  14.154  0.0000  0.0000  0.0000
 2833SOL     OW20945   0.440   3.759   9.724  0.0000  0.0000  0.0000
 2833SOL    HW120946   0.519   3.726   9.681  0.0000  0.0000  0.0000
 2833SOL    HW220947   0.381   3.685   9.726  0.0000  0.0000  0.0000
 2833SOL     MW20948   0.443   3.745   9.718  0.0000  0.0000  0.0000
 2834SOL     OW20949   1.317   4.430  10.174  0.0000  0.0000  0.0000
 2834SOL    HW120950   1.329   4.451  10.266  0.0000  0.0000  0.0000
 2834SOL    HW220951   1.284   4.512  10.135  0.0000  0.0000  0.0000
 2834SOL     MW20952   1.314   4.444  10.181  0.0000  0.0000  0.0000
 2835SOL     OW20953   1.056   5.124   9.814  0.0000  0.0000  0.0000
 2835SOL    HW120954   0.985   5.109   9.877  0.0000  0.0000  0.0000
 2835SOL    HW220955   1.056   5.045   9.759  0.0000  0.0000  0.0000
 2835SOL     MW20956   1.047   5.112   9.815  0.0000  0.0000  0.0000
 2836SOL     OW20957   3.462   6.608  14.120  0.0000  0.0000  0.0000
 2836SOL    HW120958   3.436   6.663  14.194  0.0000  0.0000  0.0000
 2836SOL    HW220959   3.455   6.519  14.153  0.0000  0.0000  0.0000
 2836SOL     MW20960   3.457   6.604  14.134  0.0000  0.0000  0.0000
 2837SOL     OW20961   1.595   3.966   9.741  0.0000  0.0000  0.0000
 2837SOL    HW120962   1.550   4.036   9.693  0.0000  0.0000  0.0000
 2837SOL    HW220963   1.685   3.968   9.708  0.0000  0.0000  0.0000
 2837SOL     MW20964   1.601   3.975   9.730  0.0000  0.0000  0.0000
 2838SOL     OW20965   0.263   2.595   9.931  0.0000  0.0000  0.0000
 2838SOL    HW120966   0.329   2.534   9.964  0.0000  0.0000  0.0000
 2838SOL    HW220967   0.195   2.596   9.999  0.0000  0.0000  0.0000
 2838SOL     MW20968   0.262   2.587   9.945  0.0000  0.0000  0.0000
 2839SOL     OW20969   3.177   6.909   9.964  0.0000  0.0000  0.0000
 2839SOL    HW120970   3.087   6.900   9.997  0.0000  0.0000  0.0000
 2839SOL    HW220971   3.194   6.827   9.918  0.0000  0.0000  0.0000
 2839SOL     MW20972   3.167   6.897   9.963  0.0000  0.0000  0.0000
 2840SOL     OW20973   3.162   2.866  10.131  0.0000  0.0000  0.0000
 2840SOL    HW120974   3.255   2.873  10.108  0.0000  0.0000  0.0000
 2840SOL    HW220975   3.148   2.773  10.147  0.0000  0.0000  0.0000
 2840SOL     MW20976   3.173   2.855  10.130  0.0000  0.0000  0.0000
 2841SOL     OW20977   0.701   4.319  14.142  0.0000  0.0000  0.0000
 2841SOL    HW120978   0.656   4.331  14.058  0.0000  0.0000  0.0000
 2841SOL    HW220979   0.686   4.227  14.163  0.0000  0.0000  0.0000
 2841SOL     MW20980   0.693   4.308  14.134  0.0000  0.0000  0.0000
 2842SOL     OW20981   3.367   6.945   9.600  0.0000  0.0000  0.0000
 2842SOL    HW120982   3.298   6.995   9.643  0.0000  0.0000  0.0000
 2842SOL    HW220983   3.332   6.856   9.595  0.0000  0.0000  0.0000
 2842SOL     MW20984   3.353   6.940   9.605  0.0000  0.0000  0.0000
 2843SOL     OW20985   3.678   6.117  14.337  0.0000  0.0000  0.0000
 2843SOL    HW120986   3.694   6.025  14.358  0.0000  0.0000  0.0000
 2843SOL    HW220987   3.663   6.159  14.422  0.0000  0.0000  0.0000
 2843SOL     MW20988   3.678   6.111  14.351  0.0000  0.0000  0.0000
 2844SOL     OW20989   1.283   3.587  11.530  0.0000  0.0000  0.0000
 2844SOL    HW120990   1.232   3.532  11.470  0.0000  0.0000  0.0000
 2844SOL    HW220991   1.295   3.669  11.484  0.0000  0.0000  0.0000
 2844SOL     MW20992   1.278   3.590  11.516  0.0000  0.0000  0.0000
 2845SOL     OW20993   3.420   6.342  14.215  0.0000  0.0000  0.0000
 2845SOL    HW120994   3.514   6.338  14.196  0.0000  0.0000  0.0000
 2845SOL    HW220995   3.403   6.265  14.269  0.0000  0.0000  0.0000
 2845SOL     MW20996   3.430   6.332  14.220  0.0000  0.0000  0.0000
 2846SOL     OW20997   0.621   6.574   9.704  0.0000  0.0000  0.0000
 2846SOL    HW120998   0.543   6.525   9.733  0.0000  0.0000  0.0000
 2846SOL    HW220999   0.690   6.547   9.765  0.0000  0.0000  0.0000
 2846SOL     MW21000   0.619   6.564   9.716  0.0000  0.0000  0.0000
 2847SOL     OW21001   1.151   5.107  10.115  0.0000  0.0000  0.0000
 2847SOL    HW121002   1.198   5.104  10.032  0.0000  0.0000  0.0000
 2847SOL    HW221003   1.120   5.018  10.129  0.0000  0.0000  0.0000
 2847SOL     MW21004   1.153   5.095  10.106  0.0000  0.0000  0.0000
 2848SOL     OW21005   0.300   3.045  12.119  0.0000  0.0000  0.0000
 2848SOL    HW121006   0.294   2.959  12.078  0.0000  0.0000  0.0000
 2848SOL    HW221007   0.215   3.086  12.101  0.0000  0.0000  0.0000
 2848SOL     MW21008   0.288   3.039  12.111  0.0000  0.0000  0.0000
 2849SOL     OW21009   1.273   3.555  14.188  0.0000  0.0000  0.0000
 2849SOL    HW121010   1.227   3.590  14.264  0.0000  0.0000  0.0000
 2849SOL    HW221011   1.205   3.546  14.121  0.0000  0.0000  0.0000
 2849SOL     MW21012   1.258   3.559  14.189  0.0000  0.0000  0.0000
 2850SOL     OW21013   0.124   6.331   9.710  0.0000  0.0000  0.0000
 2850SOL    HW121014   0.136   6.236   9.709  0.0000  0.0000  0.0000
 2850SOL    HW221015   0.063   6.348   9.638  0.0000  0.0000  0.0000
 2850SOL     MW21016   0.118   6.321   9.700  0.0000  0.0000  0.0000
 2851SOL     OW21017   4.240   3.070  14.023  0.0000  0.0000  0.0000
 2851SOL    HW121018   4.179   3.123  13.971  0.0000  0.0000  0.0000
 2851SOL    HW221019   4.190   3.048  14.102  0.0000  0.0000  0.0000
 2851SOL     MW21020   4.225   3.074  14.026  0.0000  0.0000  0.0000
 2852SOL     OW21021   1.146   7.142  14.450  0.0000  0.0000  0.0000
 2852SOL    HW121022   1.051   7.148  14.434  0.0000  0.0000  0.0000
 2852SOL    HW221023   1.186   7.177  14.370  0.0000  0.0000  0.0000
 2852SOL     MW21024   1.139   7.148  14.437  0.0000  0.0000  0.0000
 2853SOL     OW21025   1.503   4.152  14.505  0.0000  0.0000  0.0000
 2853SOL    HW121026   1.593   4.121  14.516  0.0000  0.0000  0.0000
 2853SOL    HW221027   1.454   4.074  14.478  0.0000  0.0000  0.0000
 2853SOL     MW21028   1.508   4.138  14.503  0.0000  0.0000  0.0000
 2854SOL     OW21029   4.322   7.164  14.087  0.0000  0.0000  0.0000
 2854SOL    HW121030   4.361   7.251  14.079  0.0000  0.0000  0.0000
 2854SOL    HW221031   4.329   7.128  13.999  0.0000  0.0000  0.0000
 2854SOL     MW21032   4.328   7.171  14.074  0.0000  0.0000  0.0000
 2855SOL     OW21033   3.928   6.274  14.406  0.0000  0.0000  0.0000
 2855SOL    HW121034   3.943   6.211  14.335  0.0000  0.0000  0.0000
 2855SOL    HW221035   3.893   6.352  14.362  0.0000  0.0000  0.0000
 2855SOL     MW21036   3.926   6.276  14.391  0.0000  0.0000  0.0000
 2856SOL     OW21037   1.555   3.426  10.388  0.0000  0.0000  0.0000
 2856SOL    HW121038   1.520   3.515  10.392  0.0000  0.0000  0.0000
 2856SOL    HW221039   1.648   3.437  10.371  0.0000  0.0000  0.0000
 2856SOL     MW21040   1.563   3.439  10.387  0.0000  0.0000  0.0000
 2857SOL     OW21041   1.317   4.891  13.063  0.0000  0.0000  0.0000
 2857SOL    HW121042   1.369   4.811  13.072  0.0000  0.0000  0.0000
 2857SOL    HW221043   1.360   4.940  12.993  0.0000  0.0000  0.0000
 2857SOL     MW21044   1.329   4.887  13.055  0.0000  0.0000  0.0000
 2858SOL     OW21045   1.649   5.873   9.661  0.0000  0.0000  0.0000
 2858SOL    HW121046   1.724   5.912   9.705  0.0000  0.0000  0.0000
 2858SOL    HW221047   1.641   5.922   9.579  0.0000  0.0000  0.0000
 2858SOL     MW21048   1.658   5.884   9.656  0.0000  0.0000  0.0000
 2859SOL     OW21049   2.650   3.356  10.275  0.0000  0.0000  0.0000
 2859SOL    HW121050   2.635   3.307  10.356  0.0000  0.0000  0.0000
 2859SOL    HW221051   2.628   3.446  10.297  0.0000  0.0000  0.0000
 2859SOL     MW21052   2.645   3.361  10.288  0.0000  0.0000  0.0000
 2860SOL     OW21053   0.176   3.412  10.472  0.0000  0.0000  0.0000
 2860SOL    HW121054   0.142   3.446  10.389  0.0000  0.0000  0.0000
 2860SOL    HW221055   0.147   3.320  10.474  0.0000  0.0000  0.0000
 2860SOL     MW21056   0.168   3.404  10.461  0.0000  0.0000  0.0000
 2861SOL     OW21057   0.960   4.011  10.220  0.0000  0.0000  0.0000
 2861SOL    HW121058   0.915   4.093  10.199  0.0000  0.0000  0.0000
 2861SOL    HW221059   0.941   3.996  10.313  0.0000  0.0000  0.0000
 2861SOL     MW21060   0.952   4.020  10.230  0.0000  0.0000  0.0000
 2862SOL     OW21061   2.688   5.122   9.872  0.0000  0.0000  0.0000
 2862SOL    HW121062   2.607   5.172   9.870  0.0000  0.0000  0.0000
 2862SOL    HW221063   2.746   5.166   9.810  0.0000  0.0000  0.0000
 2862SOL     MW21064   2.685   5.134   9.864  0.0000  0.0000  0.0000
 2863SOL     OW21065   1.209   4.762  14.357  0.0000  0.0000  0.0000
 2863SOL    HW121066   1.145   4.756  14.285  0.0000  0.0000  0.0000
 2863SOL    HW221067   1.217   4.856  14.373  0.0000  0.0000  0.0000
 2863SOL     MW21068   1.201   4.774  14.349  0.0000  0.0000  0.0000
 2864SOL     OW21069   1.582   4.077   9.982  0.0000  0.0000  0.0000
 2864SOL    HW121070   1.589   4.042   9.894  0.0000  0.0000  0.0000
 2864SOL    HW221071   1.518   4.021  10.025  0.0000  0.0000  0.0000
 2864SOL     MW21072   1.575   4.065   9.976  0.0000  0.0000  0.0000
 2865SOL     OW21073   0.627   3.834  13.922  0.0000  0.0000  0.0000
 2865SOL    HW121074   0.666   3.793  13.845  0.0000  0.0000  0.0000
 2865SOL    HW221075   0.697   3.891  13.956  0.0000  0.0000  0.0000
 2865SOL     MW21076   0.642   3.836  13.916  0.0000  0.0000  0.0000
 2866SOL     OW21077   0.620   4.394   9.876  0.0000  0.0000  0.0000
 2866SOL    HW121078   0.591   4.437   9.957  0.0000  0.0000  0.0000
 2866SOL    HW221079   0.544   4.341   9.850  0.0000  0.0000  0.0000
 2866SOL     MW21080   0.606   4.393   9.883  0.0000  0.0000  0.0000
 2867SOL     OW21081   2.666   4.841   9.822  0.0000  0.0000  0.0000
 2867SOL    HW121082   2.673   4.930   9.787  0.0000  0.0000  0.0000
 2867SOL    HW221083   2.614   4.851   9.902  0.0000  0.0000  0.0000
 2867SOL     MW21084   2.660   4.854   9.828  0.0000  0.0000  0.0000
 2868SOL     OW21085   3.079   6.109  14.109  0.0000  0.0000  0.0000
 2868SOL    HW121086   3.133   6.182  14.140  0.0000  0.0000  0.0000
 2868SOL    HW221087   3.121   6.031  14.144  0.0000  0.0000  0.0000
 2868SOL     MW21088   3.091   6.108  14.118  0.0000  0.0000  0.0000
 2869SOL     OW21089   0.198   4.034   9.660  0.0000  0.0000  0.0000
 2869SOL    HW121090   0.270   3.994   9.612  0.0000  0.0000  0.0000
 2869SOL    HW221091   0.137   3.962   9.677  0.0000  0.0000  0.0000
 2869SOL     MW21092   0.199   4.019   9.656  0.0000  0.0000  0.0000
 2870SOL     OW21093   0.887   2.990   9.663  0.0000  0.0000  0.0000
 2870SOL    HW121094   0.899   2.895   9.659  0.0000  0.0000  0.0000
 2870SOL    HW221095   0.815   3.003   9.724  0.0000  0.0000  0.0000
 2870SOL     MW21096   0.879   2.979   9.671  0.0000  0.0000  0.0000
 2871SOL     OW21097   1.138   5.538   9.925  0.0000  0.0000  0.0000
 2871SOL    HW121098   1.072   5.543   9.994  0.0000  0.0000  0.0000
 2871SOL    HW221099   1.129   5.620   9.877  0.0000  0.0000  0.0000
 2871SOL     MW21100   1.128   5.549   9.928  0.0000  0.0000  0.0000
 2872SOL     OW21101   3.310   6.727  12.639  0.0000  0.0000  0.0000
 2872SOL    HW121102   3.272   6.765  12.559  0.0000  0.0000  0.0000
 2872SOL    HW221103   3.261   6.768  12.710  0.0000  0.0000  0.0000
 2872SOL     MW21104   3.298   6.737  12.638  0.0000  0.0000  0.0000
 2873SOL     OW21105   4.267   6.611  13.594  0.0000  0.0000  0.0000
 2873SOL    HW121106   4.286   6.626  13.501  0.0000  0.0000  0.0000
 2873SOL    HW221107   4.178   6.642  13.606  0.0000  0.0000  0.0000
 2873SOL     MW21108   4.258   6.617  13.583  0.0000  0.0000  0.0000
 2874SOL     OW21109   1.031   3.213  14.058  0.0000  0.0000  0.0000
 2874SOL    HW121110   1.042   3.124  14.025  0.0000  0.0000  0.0000
 2874SOL    HW221111   1.082   3.214  14.139  0.0000  0.0000  0.0000
 2874SOL     MW21112   1.039   3.202  14.065  0.0000  0.0000  0.0000
 2875SOL     OW21113   3.814   6.483  14.280  0.0000  0.0000  0.0000
 2875SOL    HW121114   3.851   6.552  14.224  0.0000  0.0000  0.0000
 2875SOL    HW221115   3.758   6.433  14.221  0.0000  0.0000  0.0000
 2875SOL     MW21116   3.812   6.486  14.265  0.0000  0.0000  0.0000
 2876SOL     OW21117   2.639   5.962  10.153  0.0000  0.0000  0.0000
 2876SOL    HW121118   2.641   6.035  10.091  0.0000  0.0000  0.0000
 2876SOL    HW221119   2.573   5.987  10.218  0.0000  0.0000  0.0000
 2876SOL     MW21120   2.631   5.975  10.153  0.0000  0.0000  0.0000
 2877SOL     OW21121   1.597   3.179  11.933  0.0000  0.0000  0.0000
 2877SOL    HW121122   1.598   3.223  12.018  0.0000  0.0000  0.0000
 2877SOL    HW221123   1.619   3.088  11.953  0.0000  0.0000  0.0000
 2877SOL     MW21124   1.600   3.173  11.947  0.0000  0.0000  0.0000
 2878SOL     OW21125   4.256   7.174  11.261  0.0000  0.0000  0.0000
 2878SOL    HW121126   4.254   7.264  11.230  0.0000  0.0000  0.0000
 2878SOL    HW221127   4.180   7.132  11.219  0.0000  0.0000  0.0000
 2878SOL     MW21128   4.245   7.180  11.251  0.0000  0.0000  0.0000
 2879SOL     OW21129   1.419   3.705   9.733  0.0000  0.0000  0.0000
 2879SOL    HW121130   1.375   3.682   9.651  0.0000  0.0000  0.0000
 2879SOL    HW221131   1.470   3.782   9.712  0.0000  0.0000  0.0000
 2879SOL     MW21132   1.420   3.712   9.719  0.0000  0.0000  0.0000
 2880SOL     OW21133   3.985   6.439  13.042  0.0000  0.0000  0.0000
 2880SOL    HW121134   3.925   6.366  13.059  0.0000  0.0000  0.0000
 2880SOL    HW221135   3.999   6.437  12.948  0.0000  0.0000  0.0000
 2880SOL     MW21136   3.979   6.429  13.032  0.0000  0.0000  0.0000
 2881SOL     OW21137   4.205   4.492  10.207  0.0000  0.0000  0.0000
 2881SOL    HW121138   4.194   4.465  10.298  0.0000  0.0000  0.0000
 2881SOL    HW221139   4.146   4.567  10.197  0.0000  0.0000  0.0000
 2881SOL     MW21140   4.195   4.498  10.218  0.0000  0.0000  0.0000
 2882SOL     OW21141   3.701   3.034  10.707  0.0000  0.0000  0.0000
 2882SOL    HW121142   3.658   3.073  10.783  0.0000  0.0000  0.0000
 2882SOL    HW221143   3.645   2.960  10.683  0.0000  0.0000  0.0000
 2882SOL     MW21144   3.688   3.029  10.714  0.0000  0.0000  0.0000
 2883SOL     OW21145   1.487   3.384   9.795  0.0000  0.0000  0.0000
 2883SOL    HW121146   1.487   3.457   9.857  0.0000  0.0000  0.0000
 2883SOL    HW221147   1.497   3.306   9.850  0.0000  0.0000  0.0000
 2883SOL     MW21148   1.489   3.383   9.811  0.0000  0.0000  0.0000
 2884SOL     OW21149   1.178   5.019  14.448  0.0000  0.0000  0.0000
 2884SOL    HW121150   1.106   5.034  14.509  0.0000  0.0000  0.0000
 2884SOL    HW221151   1.246   5.081  14.475  0.0000  0.0000  0.0000
 2884SOL     MW21152   1.177   5.029  14.459  0.0000  0.0000  0.0000
 2885SOL     OW21153   3.019   4.713  14.536  0.0000  0.0000  0.0000
 2885SOL    HW121154   2.947   4.776  14.542  0.0000  0.0000  0.0000
 2885SOL    HW221155   2.979   4.629  14.560  0.0000  0.0000  0.0000
 2885SOL     MW21156   3.004   4.711  14.540  0.0000  0.0000  0.0000
 2886SOL     OW21157   4.505   5.778  13.734  0.0000  0.0000  0.0000
 2886SOL    HW121158   4.415   5.762  13.760  0.0000  0.0000  0.0000
 2886SOL    HW221159   4.517   5.872  13.745  0.0000  0.0000  0.0000
 2886SOL     MW21160   4.495   5.788  13.739  0.0000  0.0000  0.0000
 2887SOL     OW21161   3.951   3.675   9.764  0.0000  0.0000  0.0000
 2887SOL    HW121162   3.886   3.738   9.733  0.0000  0.0000  0.0000
 2887SOL    HW221163   3.902   3.615   9.820  0.0000  0.0000  0.0000
 2887SOL     MW21164   3.936   3.676   9.767  0.0000  0.0000  0.0000
 2888SOL     OW21165   3.403   4.916   9.750  0.0000  0.0000  0.0000
 2888SOL    HW121166   3.454   4.955   9.822  0.0000  0.0000  0.0000
 2888SOL    HW221167   3.324   4.969   9.745  0.0000  0.0000  0.0000
 2888SOL     MW21168   3.399   4.928   9.759  0.0000  0.0000  0.0000
 2889SOL     OW21169   3.155   4.813  13.903  0.0000  0.0000  0.0000
 2889SOL    HW121170   3.119   4.725  13.906  0.0000  0.0000  0.0000
 2889SOL    HW221171   3.193   4.821  13.815  0.0000  0.0000  0.0000
 2889SOL     MW21172   3.156   4.803  13.891  0.0000  0.0000  0.0000
 2890SOL     OW21173   2.189   6.080  13.586  0.0000  0.0000  0.0000
 2890SOL    HW121174   2.270   6.122  13.558  0.0000  0.0000  0.0000
 2890SOL    HW221175   2.130   6.152  13.608  0.0000  0.0000  0.0000
 2890SOL     MW21176   2.192   6.095  13.585  0.0000  0.0000  0.0000
 2891SOL     OW21177   4.548   6.404  12.425  0.0000  0.0000  0.0000
 2891SOL    HW121178   4.612   6.351  12.376  0.0000  0.0000  0.0000
 2891SOL    HW221179   4.480   6.341  12.450  0.0000  0.0000  0.0000
 2891SOL     MW21180   4.547   6.389  12.422  0.0000  0.0000  0.0000
 2892SOL     OW21181   3.503   6.454  10.502  0.0000  0.0000  0.0000
 2892SOL    HW121182   3.506   6.549  10.491  0.0000  0.0000  0.0000
 2892SOL    HW221183   3.595   6.428  10.514  0.0000  0.0000  0.0000
 2892SOL     MW21184   3.516   6.463  10.502  0.0000  0.0000  0.0000
 2893SOL     OW21185   1.629   6.220  13.976  0.0000  0.0000  0.0000
 2893SOL    HW121186   1.556   6.175  13.932  0.0000  0.0000  0.0000
 2893SOL    HW221187   1.697   6.225  13.909  0.0000  0.0000  0.0000
 2893SOL     MW21188   1.628   6.214  13.961  0.0000  0.0000  0.0000
 2894SOL     OW21189   4.392   6.385  14.029  0.0000  0.0000  0.0000
 2894SOL    HW121190   4.481   6.350  14.023  0.0000  0.0000  0.0000
 2894SOL    HW221191   4.402   6.480  14.023  0.0000  0.0000  0.0000
 2894SOL     MW21192   4.405   6.393  14.027  0.0000  0.0000  0.0000
 2895SOL     OW21193   0.521   6.566  10.283  0.0000  0.0000  0.0000
 2895SOL    HW121194   0.606   6.602  10.256  0.0000  0.0000  0.0000
 2895SOL    HW221195   0.483   6.530  10.202  0.0000  0.0000  0.0000
 2895SOL     MW21196   0.527   6.566  10.269  0.0000  0.0000  0.0000
 2896SOL     OW21197   4.145   3.201   9.930  0.0000  0.0000  0.0000
 2896SOL    HW121198   4.089   3.259   9.982  0.0000  0.0000  0.0000
 2896SOL    HW221199   4.231   3.243   9.932  0.0000  0.0000  0.0000
 2896SOL     MW21200   4.149   3.214   9.937  0.0000  0.0000  0.0000
 2897SOL     OW21201   3.832   6.984  10.019  0.0000  0.0000  0.0000
 2897SOL    HW121202   3.743   6.954  10.002  0.0000  0.0000  0.0000
 2897SOL    HW221203   3.879   6.966   9.938  0.0000  0.0000  0.0000
 2897SOL     MW21204   3.826   6.977  10.006  0.0000  0.0000  0.0000
 2898SOL     OW21205   0.825   3.439   9.867  0.0000  0.0000  0.0000
 2898SOL    HW121206   0.800   3.363   9.919  0.0000  0.0000  0.0000
 2898SOL    HW221207   0.816   3.513   9.927  0.0000  0.0000  0.0000
 2898SOL     MW21208   0.820   3.439   9.882  0.0000  0.0000  0.0000
 2899SOL     OW21209   0.034   3.787  14.189  0.0000  0.0000  0.0000
 2899SOL    HW121210   0.041   3.790  14.094  0.0000  0.0000  0.0000
 2899SOL    HW221211  -0.060   3.798  14.207  0.0000  0.0000  0.0000
 2899SOL     MW21212   0.022   3.789  14.179  0.0000  0.0000  0.0000
 2900SOL     OW21213   2.965   6.542   9.873  0.0000  0.0000  0.0000
 2900SOL    HW121214   2.949   6.470   9.934  0.0000  0.0000  0.0000
 2900SOL    HW221215   2.966   6.500   9.786  0.0000  0.0000  0.0000
 2900SOL     MW21216   2.963   6.527   9.869  0.0000  0.0000  0.0000
 2901SOL     OW21217   3.751   5.554  14.176  0.0000  0.0000  0.0000
 2901SOL    HW121218   3.842   5.582  14.167  0.0000  0.0000  0.0000
 2901SOL    HW221219   3.700   5.632  14.155  0.0000  0.0000  0.0000
 2901SOL     MW21220   3.756   5.568  14.172  0.0000  0.0000  0.0000
 2902SOL     OW21221   3.800   4.070   9.734  0.0000  0.0000  0.0000
 2902SOL    HW121222   3.781   4.095   9.825  0.0000  0.0000  0.0000
 2902SOL    HW221223   3.760   3.983   9.724  0.0000  0.0000  0.0000
 2902SOL     MW21224   3.792   4.062   9.745  0.0000  0.0000  0.0000
 2903SOL     OW21225   0.827   5.674  13.859  0.0000  0.0000  0.0000
 2903SOL    HW121226   0.855   5.765  13.874  0.0000  0.0000  0.0000
 2903SOL    HW221227   0.732   5.677  13.870  0.0000  0.0000  0.0000
 2903SOL     MW21228   0.818   5.687  13.863  0.0000  0.0000  0.0000
 2904SOL     OW21229   3.309   3.599   9.706  0.0000  0.0000  0.0000
 2904SOL    HW121230   3.310   3.609   9.611  0.0000  0.0000  0.0000
 2904SOL    HW221231   3.379   3.657   9.737  0.0000  0.0000  0.0000
 2904SOL     MW21232   3.319   3.608   9.698  0.0000  0.0000  0.0000
 2905SOL     OW21233   4.316   3.289  14.191  0.0000  0.0000  0.0000
 2905SOL    HW121234   4.286   3.233  14.120  0.0000  0.0000  0.0000
 2905SOL    HW221235   4.274   3.373  14.175  0.0000  0.0000  0.0000
 2905SOL     MW21236   4.306   3.293  14.180  0.0000  0.0000  0.0000
 2906SOL     OW21237   3.873   6.726  13.347  0.0000  0.0000  0.0000
 2906SOL    HW121238   3.917   6.646  13.318  0.0000  0.0000  0.0000
 2906SOL    HW221239   3.820   6.699  13.422  0.0000  0.0000  0.0000
 2906SOL     MW21240   3.872   6.712  13.353  0.0000  0.0000  0.0000
 2907SOL     OW21241   0.685   2.670   9.713  0.0000  0.0000  0.0000
 2907SOL    HW121242   0.689   2.575   9.721  0.0000  0.0000  0.0000
 2907SOL    HW221243   0.675   2.686   9.619  0.0000  0.0000  0.0000
 2907SOL     MW21244   0.684   2.660   9.702  0.0000  0.0000  0.0000
 2908SOL     OW21245   1.182   4.246   9.994  0.0000  0.0000  0.0000
 2908SOL    HW121246   1.093   4.278  10.009  0.0000  0.0000  0.0000
 2908SOL    HW221247   1.233   4.281  10.068  0.0000  0.0000  0.0000
 2908SOL     MW21248   1.177   4.255  10.006  0.0000  0.0000  0.0000
 2909SOL     OW21249   0.161   6.083  14.295  0.0000  0.0000  0.0000
 2909SOL    HW121250   0.132   6.009  14.348  0.0000  0.0000  0.0000
 2909SOL    HW221251   0.152   6.159  14.352  0.0000  0.0000  0.0000
 2909SOL     MW21252   0.156   6.083  14.309  0.0000  0.0000  0.0000
 2910SOL     OW21253   0.380   4.831   9.674  0.0000  0.0000  0.0000
 2910SOL    HW121254   0.456   4.799   9.722  0.0000  0.0000  0.0000
 2910SOL    HW221255   0.310   4.838   9.739  0.0000  0.0000  0.0000
 2910SOL     MW21256   0.381   4.828   9.689  0.0000  0.0000  0.0000
 2911SOL     OW21257   1.103   3.842   9.889  0.0000  0.0000  0.0000
 2911SOL    HW121258   1.134   3.874   9.974  0.0000  0.0000  0.0000
 2911SOL    HW221259   1.105   3.746   9.897  0.0000  0.0000  0.0000
 2911SOL     MW21260   1.107   3.833   9.901  0.0000  0.0000  0.0000
 2912SOL     OW21261   1.459   5.929   9.883  0.0000  0.0000  0.0000
 2912SOL    HW121262   1.537   5.915   9.827  0.0000  0.0000  0.0000
 2912SOL    HW221263   1.462   5.857   9.946  0.0000  0.0000  0.0000
 2912SOL     MW21264   1.470   5.917   9.884  0.0000  0.0000  0.0000
 2913SOL     OW21265   1.548   7.047  12.003  0.0000  0.0000  0.0000
 2913SOL    HW121266   1.536   6.952  12.012  0.0000  0.0000  0.0000
 2913SOL    HW221267   1.461   7.080  11.980  0.0000  0.0000  0.0000
 2913SOL     MW21268   1.535   7.038  12.001  0.0000  0.0000  0.0000
 2914SOL     OW21269   2.849   5.550  13.869  0.0000  0.0000  0.0000
 2914SOL    HW121270   2.891   5.596  13.796  0.0000  0.0000  0.0000
 2914SOL    HW221271   2.921   5.528  13.928  0.0000  0.0000  0.0000
 2914SOL     MW21272   2.864   5.553  13.867  0.0000  0.0000  0.0000
 2915SOL     OW21273   4.633   7.042   9.951  0.0000  0.0000  0.0000
 2915SOL    HW121274   4.685   6.977   9.903  0.0000  0.0000  0.0000
 2915SOL    HW221275   4.564   7.067   9.889  0.0000  0.0000  0.0000
 2915SOL     MW21276   4.631   7.036   9.936  0.0000  0.0000  0.0000
 2916SOL     OW21277   1.023   5.380  14.501  0.0000  0.0000  0.0000
 2916SOL    HW121278   1.045   5.410  14.412  0.0000  0.0000  0.0000
 2916SOL    HW221279   0.931   5.355  14.495  0.0000  0.0000  0.0000
 2916SOL     MW21280   1.014   5.381  14.488  0.0000  0.0000  0.0000
 2917SOL     OW21281   3.656   7.157  10.528  0.0000  0.0000  0.0000
 2917SOL    HW121282   3.745   7.180  10.554  0.0000  0.0000  0.0000
 2917SOL    HW221283   3.634   7.220  10.459  0.0000  0.0000  0.0000
 2917SOL     MW21284   3.665   7.169  10.523  0.0000  0.0000  0.0000
 2918SOL     OW21285   3.552   4.710   9.670  0.0000  0.0000  0.0000
 2918SOL    HW121286   3.558   4.677   9.759  0.0000  0.0000  0.0000
 2918SOL    HW221287   3.500   4.791   9.678  0.0000  0.0000  0.0000
 2918SOL     MW21288   3.546   4.717   9.683  0.0000  0.0000  0.0000
 2919SOL     OW21289   1.746   6.535  10.195  0.0000  0.0000  0.0000
 2919SOL    HW121290   1.680   6.473  10.225  0.0000  0.0000  0.0000
 2919SOL    HW221291   1.830   6.492  10.212  0.0000  0.0000  0.0000
 2919SOL     MW21292   1.749   6.521  10.201  0.0000  0.0000  0.0000
 2920SOL     OW21293   4.136   6.344  14.139  0.0000  0.0000  0.0000
 2920SOL    HW121294   4.216   6.360  14.090  0.0000  0.0000  0.0000
 2920SOL    HW221295   4.165   6.298  14.218  0.0000  0.0000  0.0000
 2920SOL     MW21296   4.150   6.340  14.143  0.0000  0.0000  0.0000
 2921SOL     OW21297   3.951   6.208  13.996  0.0000  0.0000  0.0000
 2921SOL    HW121298   4.010   6.275  14.030  0.0000  0.0000  0.0000
 2921SOL    HW221299   3.894   6.255  13.935  0.0000  0.0000  0.0000
 2921SOL     MW21300   3.951   6.223  13.992  0.0000  0.0000  0.0000
 2922SOL     OW21301   3.750   2.772   9.985  0.0000  0.0000  0.0000
 2922SOL    HW121302   3.707   2.698  10.028  0.0000  0.0000  0.0000
 2922SOL    HW221303   3.745   2.844  10.048  0.0000  0.0000  0.0000
 2922SOL     MW21304   3.744   2.772   9.999  0.0000  0.0000  0.0000
 2923SOL     OW21305   0.482   6.860   9.747  0.0000  0.0000  0.0000
 2923SOL    HW121306   0.414   6.908   9.701  0.0000  0.0000  0.0000
 2923SOL    HW221307   0.548   6.840   9.680  0.0000  0.0000  0.0000
 2923SOL     MW21308   0.482   6.864   9.732  0.0000  0.0000  0.0000
 2924SOL     OW21309   3.901   6.843  13.823  0.0000  0.0000  0.0000
 2924SOL    HW121310   3.997   6.842  13.828  0.0000  0.0000  0.0000
 2924SOL    HW221311   3.882   6.862  13.731  0.0000  0.0000  0.0000
 2924SOL     MW21312   3.911   6.845  13.811  0.0000  0.0000  0.0000
 2925SOL     OW21313   1.080   7.116   9.812  0.0000  0.0000  0.0000
 2925SOL    HW121314   1.052   7.193   9.763  0.0000  0.0000  0.0000
 2925SOL    HW221315   1.165   7.142   9.850  0.0000  0.0000  0.0000
 2925SOL     MW21316   1.088   7.130   9.811  0.0000  0.0000  0.0000
 2926SOL     OW21317   4.094   7.015  11.606  0.0000  0.0000  0.0000
 2926SOL    HW121318   4.102   7.106  11.575  0.0000  0.0000  0.0000
 2926SOL    HW221319   4.062   7.023  11.695  0.0000  0.0000  0.0000
 2926SOL     MW21320   4.091   7.028  11.613  0.0000  0.0000  0.0000
 2927SOL     OW21321   2.936   4.192  14.525  0.0000  0.0000  0.0000
 2927SOL    HW121322   2.944   4.278  14.565  0.0000  0.0000  0.0000
 2927SOL    HW221323   2.854   4.195  14.476  0.0000  0.0000  0.0000
 2927SOL     MW21324   2.926   4.203  14.524  0.0000  0.0000  0.0000
 2928SOL     OW21325   2.521   4.912  13.983  0.0000  0.0000  0.0000
 2928SOL    HW121326   2.445   4.966  13.961  0.0000  0.0000  0.0000
 2928SOL    HW221327   2.546   4.870  13.901  0.0000  0.0000  0.0000
 2928SOL     MW21328   2.515   4.913  13.969  0.0000  0.0000  0.0000
 2929SOL     OW21329   4.427   2.801   9.983  0.0000  0.0000  0.0000
 2929SOL    HW121330   4.355   2.850  10.022  0.0000  0.0000  0.0000
 2929SOL    HW221331   4.404   2.710   9.995  0.0000  0.0000  0.0000
 2929SOL     MW21332   4.414   2.796   9.990  0.0000  0.0000  0.0000
 2930SOL     OW21333   3.590   3.969  14.434  0.0000  0.0000  0.0000
 2930SOL    HW121334   3.545   3.895  14.393  0.0000  0.0000  0.0000
 2930SOL    HW221335   3.590   3.947  14.527  0.0000  0.0000  0.0000
 2930SOL     MW21336   3.584   3.956  14.441  0.0000  0.0000  0.0000
 2931SOL     OW21337   4.207   2.788  11.183  0.0000  0.0000  0.0000
 2931SOL    HW121338   4.238   2.837  11.259  0.0000  0.0000  0.0000
 2931SOL    HW221339   4.197   2.854  11.115  0.0000  0.0000  0.0000
 2931SOL     MW21340   4.210   2.803  11.184  0.0000  0.0000  0.0000
 2932SOL     OW21341   1.282   3.390  10.570  0.0000  0.0000  0.0000
 2932SOL    HW121342   1.296   3.468  10.624  0.0000  0.0000  0.0000
 2932SOL    HW221343   1.361   3.337  10.584  0.0000  0.0000  0.0000
 2932SOL     MW21344   1.294   3.394  10.579  0.0000  0.0000  0.0000
 2933SOL     OW21345   1.621   6.668  10.421  0.0000  0.0000  0.0000
 2933SOL    HW121346   1.697   6.719  10.449  0.0000  0.0000  0.0000
 2933SOL    HW221347   1.648   6.627  10.339  0.0000  0.0000  0.0000
 2933SOL     MW21348   1.635   6.669  10.414  0.0000  0.0000  0.0000
 2934SOL     OW21349   0.833   3.896   9.892  0.0000  0.0000  0.0000
 2934SOL    HW121350   0.783   3.832   9.943  0.0000  0.0000  0.0000
 2934SOL    HW221351   0.925   3.876   9.912  0.0000  0.0000  0.0000
 2934SOL     MW21352   0.838   3.885   9.901  0.0000  0.0000  0.0000
 2935SOL     OW21353   2.986   6.011  14.515  0.0000  0.0000  0.0000
 2935SOL    HW121354   3.065   5.959  14.502  0.0000  0.0000  0.0000
 2935SOL    HW221355   2.952   6.026  14.427  0.0000  0.0000  0.0000
 2935SOL     MW21356   2.992   6.006  14.502  0.0000  0.0000  0.0000
 2936SOL     OW21357   4.254   5.444   9.759  0.0000  0.0000  0.0000
 2936SOL    HW121358   4.234   5.501   9.685  0.0000  0.0000  0.0000
 2936SOL    HW221359   4.176   5.450   9.815  0.0000  0.0000  0.0000
 2936SOL     MW21360   4.241   5.453   9.757  0.0000  0.0000  0.0000
 2937SOL     OW21361   1.175   5.904  14.073  0.0000  0.0000  0.0000
 2937SOL    HW121362   1.242   5.870  14.131  0.0000  0.0000  0.0000
 2937SOL    HW221363   1.135   5.976  14.121  0.0000  0.0000  0.0000
 2937SOL     MW21364   1.178   5.909  14.087  0.0000  0.0000  0.0000
 2938SOL     OW21365   3.392   3.305   9.922  0.0000  0.0000  0.0000
 2938SOL    HW121366   3.403   3.216   9.888  0.0000  0.0000  0.0000
 2938SOL    HW221367   3.349   3.293  10.007  0.0000  0.0000  0.0000
 2938SOL     MW21368   3.388   3.291   9.929  0.0000  0.0000  0.0000
 2939SOL     OW21369   1.608   2.858  11.941  0.0000  0.0000  0.0000
 2939SOL    HW121370   1.627   2.804  12.018  0.0000  0.0000  0.0000
 2939SOL    HW221371   1.683   2.846  11.884  0.0000  0.0000  0.0000
 2939SOL     MW21372   1.620   2.849  11.944  0.0000  0.0000  0.0000
 2940SOL     OW21373   1.486   2.651  11.804  0.0000  0.0000  0.0000
 2940SOL    HW121374   1.526   2.699  11.877  0.0000  0.0000  0.0000
 2940SOL    HW221375   1.508   2.703  11.727  0.0000  0.0000  0.0000
 2940SOL     MW21376   1.494   2.665  11.804  0.0000  0.0000  0.0000
 2941SOL     OW21377   2.835   5.978  10.352  0.0000  0.0000  0.0000
 2941SOL    HW121378   2.810   6.071  10.355  0.0000  0.0000  0.0000
 2941SOL    HW221379   2.789   5.943  10.276  0.0000  0.0000  0.0000
 2941SOL     MW21380   2.826   5.986  10.343  0.0000  0.0000  0.0000
 2942SOL     OW21381   0.801   6.592  10.232  0.0000  0.0000  0.0000
 2942SOL    HW121382   0.842   6.629  10.310  0.0000  0.0000  0.0000
 2942SOL    HW221383   0.796   6.664  10.170  0.0000  0.0000  0.0000
 2942SOL     MW21384   0.806   6.606  10.234  0.0000  0.0000  0.0000
 2943SOL     OW21385   2.068   4.294  14.514  0.0000  0.0000  0.0000
 2943SOL    HW121386   2.045   4.329  14.428  0.0000  0.0000  0.0000
 2943SOL    HW221387   2.099   4.370  14.563  0.0000  0.0000  0.0000
 2943SOL     MW21388   2.069   4.309  14.509  0.0000  0.0000  0.0000
 2944SOL     OW21389   2.108   2.673  10.482  0.0000  0.0000  0.0000
 2944SOL    HW121390   2.095   2.663  10.388  0.0000  0.0000  0.0000
 2944SOL    HW221391   2.055   2.750  10.506  0.0000  0.0000  0.0000
 2944SOL     MW21392   2.099   2.682  10.473  0.0000  0.0000  0.0000
 2945SOL     OW21393   3.659   5.966  14.032  0.0000  0.0000  0.0000
 2945SOL    HW121394   3.746   5.937  14.004  0.0000  0.0000  0.0000
 2945SOL    HW221395   3.624   5.892  14.082  0.0000  0.0000  0.0000
 2945SOL     MW21396   3.666   5.952  14.035  0.0000  0.0000  0.0000
 2946SOL     OW21397   4.364   5.784   9.750  0.0000  0.0000  0.0000
 2946SOL    HW121398   4.269   5.777   9.741  0.0000  0.0000  0.0000
 2946SOL    HW221399   4.397   5.697   9.726  0.0000  0.0000  0.0000
 2946SOL     MW21400   4.355   5.772   9.745  0.0000  0.0000  0.0000
 2947SOL     OW21401   1.497   3.606   9.985  0.0000  0.0000  0.0000
 2947SOL    HW121402   1.441   3.636   9.913  0.0000  0.0000  0.0000
 2947SOL    HW221403   1.436   3.584  10.055  0.0000  0.0000  0.0000
 2947SOL     MW21404   1.481   3.607   9.985  0.0000  0.0000  0.0000
 2948SOL     OW21405   3.725   5.087  10.160  0.0000  0.0000  0.0000
 2948SOL    HW121406   3.799   5.097  10.100  0.0000  0.0000  0.0000
 2948SOL    HW221407   3.704   5.177  10.186  0.0000  0.0000  0.0000
 2948SOL     MW21408   3.732   5.101  10.156  0.0000  0.0000  0.0000
 2949SOL     OW21409   3.410   4.740  14.251  0.0000  0.0000  0.0000
 2949SOL    HW121410   3.418   4.704  14.162  0.0000  0.0000  0.0000
 2949SOL    HW221411   3.334   4.695  14.288  0.0000  0.0000  0.0000
 2949SOL     MW21412   3.401   4.729  14.244  0.0000  0.0000  0.0000
 2950SOL     OW21413   0.864   5.530   9.866  0.0000  0.0000  0.0000
 2950SOL    HW121414   0.826   5.445   9.843  0.0000  0.0000  0.0000
 2950SOL    HW221415   0.958   5.516   9.864  0.0000  0.0000  0.0000
 2950SOL     MW21416   0.871   5.517   9.863  0.0000  0.0000  0.0000
 2951SOL     OW21417   0.468   2.884  14.295  0.0000  0.0000  0.0000
 2951SOL    HW121418   0.423   2.896  14.378  0.0000  0.0000  0.0000
 2951SOL    HW221419   0.401   2.845  14.237  0.0000  0.0000  0.0000
 2951SOL     MW21420   0.453   2.880  14.298  0.0000  0.0000  0.0000
 2952SOL     OW21421   0.652   4.967  13.008  0.0000  0.0000  0.0000
 2952SOL    HW121422   0.627   4.965  12.915  0.0000  0.0000  0.0000
 2952SOL    HW221423   0.703   5.047  13.018  0.0000  0.0000  0.0000
 2952SOL     MW21424   0.655   4.977  12.997  0.0000  0.0000  0.0000
 2953SOL     OW21425   4.586   2.885   9.751  0.0000  0.0000  0.0000
 2953SOL    HW121426   4.543   2.864   9.834  0.0000  0.0000  0.0000
 2953SOL    HW221427   4.573   2.979   9.741  0.0000  0.0000  0.0000
 2953SOL     MW21428   4.579   2.895   9.760  0.0000  0.0000  0.0000
 2954SOL     OW21429   1.593   6.388  10.569  0.0000  0.0000  0.0000
 2954SOL    HW121430   1.579   6.481  10.553  0.0000  0.0000  0.0000
 2954SOL    HW221431   1.595   6.348  10.482  0.0000  0.0000  0.0000
 2954SOL     MW21432   1.592   6.395  10.555  0.0000  0.0000  0.0000
 2955SOL     OW21433   4.058   5.805  13.948  0.0000  0.0000  0.0000
 2955SOL    HW121434   4.053   5.772  14.037  0.0000  0.0000  0.0000
 2955SOL    HW221435   4.023   5.734  13.894  0.0000  0.0000  0.0000
 2955SOL     MW21436   4.052   5.791  13.952  0.0000  0.0000  0.0000
 2956SOL     OW21437   1.834   5.456  10.251  0.0000  0.0000  0.0000
 2956SOL    HW121438   1.812   5.520  10.184  0.0000  0.0000  0.0000
 2956SOL    HW221439   1.853   5.376  10.203  0.0000  0.0000  0.0000
 2956SOL     MW21440   1.834   5.454  10.236  0.0000  0.0000  0.0000
 2957SOL     OW21441   1.349   6.124  13.966  0.0000  0.0000  0.0000
 2957SOL    HW121442   1.299   6.042  13.960  0.0000  0.0000  0.0000
 2957SOL    HW221443   1.322   6.162  14.049  0.0000  0.0000  0.0000
 2957SOL     MW21444   1.339   6.118  13.976  0.0000  0.0000  0.0000
 2958SOL     OW21445   0.782   5.829  10.964  0.0000  0.0000  0.0000
 2958SOL    HW121446   0.749   5.752  11.011  0.0000  0.0000  0.0000
 2958SOL    HW221447   0.769   5.902  11.024  0.0000  0.0000  0.0000
 2958SOL     MW21448   0.776   5.828  10.978  0.0000  0.0000  0.0000
 2959SOL     OW21449   3.672   6.310  14.125  0.0000  0.0000  0.0000
 2959SOL    HW121450   3.641   6.273  14.043  0.0000  0.0000  0.0000
 2959SOL    HW221451   3.683   6.235  14.183  0.0000  0.0000  0.0000
 2959SOL     MW21452   3.669   6.295  14.122  0.0000  0.0000  0.0000
 2960SOL     OW21453   3.176   3.058  14.425  0.0000  0.0000  0.0000
 2960SOL    HW121454   3.131   3.133  14.385  0.0000  0.0000  0.0000
 2960SOL    HW221455   3.115   2.985  14.414  0.0000  0.0000  0.0000
 2960SOL     MW21456   3.162   3.058  14.418  0.0000  0.0000  0.0000
 2961SOL     OW21457   3.973   3.336  10.096  0.0000  0.0000  0.0000
 2961SOL    HW121458   3.914   3.262  10.089  0.0000  0.0000  0.0000
 2961SOL    HW221459   4.005   3.333  10.186  0.0000  0.0000  0.0000
 2961SOL     MW21460   3.970   3.326  10.107  0.0000  0.0000  0.0000
 2962SOL     OW21461   1.640   6.609   9.972  0.0000  0.0000  0.0000
 2962SOL    HW121462   1.676   6.587  10.057  0.0000  0.0000  0.0000
 2962SOL    HW221463   1.554   6.566   9.970  0.0000  0.0000  0.0000
 2962SOL     MW21464   1.633   6.600   9.983  0.0000  0.0000  0.0000
 2963SOL     OW21465   0.551   4.902  12.743  0.0000  0.0000  0.0000
 2963SOL    HW121466   0.489   4.975  12.748  0.0000  0.0000  0.0000
 2963SOL    HW221467   0.503   4.827  12.777  0.0000  0.0000  0.0000
 2963SOL     MW21468   0.537   4.902  12.748  0.0000  0.0000  0.0000
 2964SOL     OW21469   3.855   2.677  14.218  0.0000  0.0000  0.0000
 2964SOL    HW121470   3.825   2.722  14.139  0.0000  0.0000  0.0000
 2964SOL    HW221471   3.776   2.637  14.254  0.0000  0.0000  0.0000
 2964SOL     MW21472   3.841   2.678  14.213  0.0000  0.0000  0.0000
 2965SOL     OW21473   2.489   6.750  10.367  0.0000  0.0000  0.0000
 2965SOL    HW121474   2.567   6.769  10.419  0.0000  0.0000  0.0000
 2965SOL    HW221475   2.421   6.807  10.405  0.0000  0.0000  0.0000
 2965SOL     MW21476   2.490   6.760  10.379  0.0000  0.0000  0.0000
 2966SOL     OW21477   1.530   6.171  11.203  0.0000  0.0000  0.0000
 2966SOL    HW121478   1.613   6.135  11.171  0.0000  0.0000  0.0000
 2966SOL    HW221479   1.557   6.240  11.264  0.0000  0.0000  0.0000
 2966SOL     MW21480   1.545   6.176  11.207  0.0000  0.0000  0.0000
 2967SOL     OW21481   4.629   3.063  13.952  0.0000  0.0000  0.0000
 2967SOL    HW121482   4.687   3.123  13.905  0.0000  0.0000  0.0000
 2967SOL    HW221483   4.622   3.100  14.040  0.0000  0.0000  0.0000
 2967SOL     MW21484   4.636   3.076  13.957  0.0000  0.0000  0.0000
 2968SOL     OW21485   3.804   4.879   9.854  0.0000  0.0000  0.0000
 2968SOL    HW121486   3.890   4.842   9.877  0.0000  0.0000  0.0000
 2968SOL    HW221487   3.797   4.866   9.759  0.0000  0.0000  0.0000
 2968SOL     MW21488   3.815   4.872   9.844  0.0000  0.0000  0.0000
 2969SOL     OW21489   4.499   3.680  10.711  0.0000  0.0000  0.0000
 2969SOL    HW121490   4.441   3.611  10.679  0.0000  0.0000  0.0000
 2969SOL    HW221491   4.587   3.643  10.705  0.0000  0.0000  0.0000
 2969SOL     MW21492   4.503   3.666  10.706  0.0000  0.0000  0.0000
 2970SOL     OW21493   2.001   3.039  14.043  0.0000  0.0000  0.0000
 2970SOL    HW121494   1.977   3.132  14.043  0.0000  0.0000  0.0000
 2970SOL    HW221495   2.096   3.039  14.038  0.0000  0.0000  0.0000
 2970SOL     MW21496   2.010   3.051  14.043  0.0000  0.0000  0.0000
 2971SOL     OW21497   3.495   6.731  10.473  0.0000  0.0000  0.0000
 2971SOL    HW121498   3.558   6.794  10.437  0.0000  0.0000  0.0000
 2971SOL    HW221499   3.430   6.785  10.518  0.0000  0.0000  0.0000
 2971SOL     MW21500   3.495   6.747  10.474  0.0000  0.0000  0.0000
 2972SOL     OW21501   3.145   3.657   9.925  0.0000  0.0000  0.0000
 2972SOL    HW121502   3.097   3.574   9.924  0.0000  0.0000  0.0000
 2972SOL    HW221503   3.211   3.647   9.857  0.0000  0.0000  0.0000
 2972SOL     MW21504   3.148   3.644   9.916  0.0000  0.0000  0.0000
 2973SOL     OW21505   4.629   6.443  13.406  0.0000  0.0000  0.0000
 2973SOL    HW121506   4.604   6.528  13.372  0.0000  0.0000  0.0000
 2973SOL    HW221507   4.557   6.384  13.381  0.0000  0.0000  0.0000
 2973SOL     MW21508   4.616   6.446  13.398  0.0000  0.0000  0.0000
 2974SOL     OW21509   2.872   6.850  14.147  0.0000  0.0000  0.0000
 2974SOL    HW121510   2.867   6.806  14.232  0.0000  0.0000  0.0000
 2974SOL    HW221511   2.950   6.813  14.105  0.0000  0.0000  0.0000
 2974SOL     MW21512   2.882   6.839  14.153  0.0000  0.0000  0.0000
 2975SOL     OW21513   0.540   6.065  14.456  0.0000  0.0000  0.0000
 2975SOL    HW121514   0.478   6.088  14.386  0.0000  0.0000  0.0000
 2975SOL    HW221515   0.489   6.010  14.516  0.0000  0.0000  0.0000
 2975SOL     MW21516   0.525   6.061  14.454  0.0000  0.0000  0.0000
 2976SOL     OW21517   2.390   5.814  11.715  0.0000  0.0000  0.0000
 2976SOL    HW121518   2.422   5.902  11.696  0.0000  0.0000  0.0000
 2976SOL    HW221519   2.305   5.810  11.670  0.0000  0.0000  0.0000
 2976SOL     MW21520   2.383   5.825  11.706  0.0000  0.0000  0.0000
 2977SOL     OW21521   0.106   3.455  14.135  0.0000  0.0000  0.0000
 2977SOL    HW121522   0.134   3.380  14.083  0.0000  0.0000  0.0000
 2977SOL    HW221523   0.167   3.458  14.208  0.0000  0.0000  0.0000
 2977SOL     MW21524   0.118   3.446  14.138  0.0000  0.0000  0.0000
 2978SOL     OW21525   0.453   6.384   9.814  0.0000  0.0000  0.0000
 2978SOL    HW121526   0.424   6.374   9.905  0.0000  0.0000  0.0000
 2978SOL    HW221527   0.372   6.391   9.764  0.0000  0.0000  0.0000
 2978SOL     MW21528   0.438   6.383   9.820  0.0000  0.0000  0.0000
 2979SOL     OW21529   1.304   2.979   9.884  0.0000  0.0000  0.0000
 2979SOL    HW121530   1.372   3.042   9.909  0.0000  0.0000  0.0000
 2979SOL    HW221531   1.316   2.966   9.790  0.0000  0.0000  0.0000
 2979SOL     MW21532   1.314   2.986   9.875  0.0000  0.0000  0.0000
 2980SOL     OW21533   0.825   4.443  13.290  0.0000  0.0000  0.0000
 2980SOL    HW121534   0.739   4.478  13.315  0.0000  0.0000  0.0000
 2980SOL    HW221535   0.859   4.506  13.227  0.0000  0.0000  0.0000
 2980SOL     MW21536   0.818   4.456  13.285  0.0000  0.0000  0.0000
 2981SOL     OW21537   0.492   3.401  10.094  0.0000  0.0000  0.0000
 2981SOL    HW121538   0.527   3.482  10.059  0.0000  0.0000  0.0000
 2981SOL    HW221539   0.556   3.372  10.159  0.0000  0.0000  0.0000
 2981SOL     MW21540   0.505   3.408  10.098  0.0000  0.0000  0.0000
 2982SOL     OW21541   3.515   4.223   9.765  0.0000  0.0000  0.0000
 2982SOL    HW121542   3.608   4.207   9.747  0.0000  0.0000  0.0000
 2982SOL    HW221543   3.487   4.280   9.693  0.0000  0.0000  0.0000
 2982SOL     MW21544   3.523   4.229   9.753  0.0000  0.0000  0.0000
 2983SOL     OW21545   4.360   4.391  14.237  0.0000  0.0000  0.0000
 2983SOL    HW121546   4.446   4.431  14.249  0.0000  0.0000  0.0000
 2983SOL    HW221547   4.369   4.304  14.275  0.0000  0.0000  0.0000
 2983SOL     MW21548   4.373   4.385  14.243  0.0000  0.0000  0.0000
 2984SOL     OW21549   2.090   4.935   9.882  0.0000  0.0000  0.0000
 2984SOL    HW121550   2.047   4.902   9.803  0.0000  0.0000  0.0000
 2984SOL    HW221551   2.160   4.872   9.899  0.0000  0.0000  0.0000
 2984SOL     MW21552   2.094   4.922   9.874  0.0000  0.0000  0.0000
 2985SOL     OW21553   2.154   5.714  14.524  0.0000  0.0000  0.0000
 2985SOL    HW121554   2.152   5.649  14.453  0.0000  0.0000  0.0000
 2985SOL    HW221555   2.219   5.680  14.585  0.0000  0.0000  0.0000
 2985SOL     MW21556   2.162   5.701  14.523  0.0000  0.0000  0.0000
 2986SOL     OW21557   4.102   4.694   9.684  0.0000  0.0000  0.0000
 2986SOL    HW121558   4.037   4.741   9.632  0.0000  0.0000  0.0000
 2986SOL    HW221559   4.185   4.740   9.667  0.0000  0.0000  0.0000
 2986SOL     MW21560   4.105   4.706   9.675  0.0000  0.0000  0.0000
 2987SOL     OW21561   1.215   3.771  10.328  0.0000  0.0000  0.0000
 2987SOL    HW121562   1.128   3.753  10.364  0.0000  0.0000  0.0000
 2987SOL    HW221563   1.205   3.855  10.283  0.0000  0.0000  0.0000
 2987SOL     MW21564   1.202   3.779  10.327  0.0000  0.0000  0.0000
 2988SOL     OW21565   0.816   4.220   9.839  0.0000  0.0000  0.0000
 2988SOL    HW121566   0.778   4.133   9.848  0.0000  0.0000  0.0000
 2988SOL    HW221567   0.744   4.280   9.857  0.0000  0.0000  0.0000
 2988SOL     MW21568   0.802   4.216   9.842  0.0000  0.0000  0.0000
 2989SOL     OW21569   1.875   6.507  14.119  0.0000  0.0000  0.0000
 2989SOL    HW121570   1.922   6.480  14.198  0.0000  0.0000  0.0000
 2989SOL    HW221571   1.851   6.599  14.135  0.0000  0.0000  0.0000
 2989SOL     MW21572   1.878   6.516  14.132  0.0000  0.0000  0.0000
 2990SOL     OW21573   1.416   3.123  13.407  0.0000  0.0000  0.0000
 2990SOL    HW121574   1.325   3.124  13.378  0.0000  0.0000  0.0000
 2990SOL    HW221575   1.430   3.211  13.442  0.0000  0.0000  0.0000
 2990SOL     MW21576   1.406   3.135  13.407  0.0000  0.0000  0.0000
 2991SOL     OW21577   0.097   5.689  13.594  0.0000  0.0000  0.0000
 2991SOL    HW121578   0.009   5.721  13.616  0.0000  0.0000  0.0000
 2991SOL    HW221579   0.112   5.617  13.656  0.0000  0.0000  0.0000
 2991SOL     MW21580   0.087   5.683  13.605  0.0000  0.0000  0.0000
 2992SOL     OW21581   0.212   4.651  14.482  0.0000  0.0000  0.0000
 2992SOL    HW121582   0.139   4.638  14.543  0.0000  0.0000  0.0000
 2992SOL    HW221583   0.237   4.562  14.455  0.0000  0.0000  0.0000
 2992SOL     MW21584   0.206   4.637  14.487  0.0000  0.0000  0.0000
 2993SOL     OW21585   1.696   2.805  14.339  0.0000  0.0000  0.0000
 2993SOL    HW121586   1.746   2.778  14.415  0.0000  0.0000  0.0000
 2993SOL    HW221587   1.740   2.764  14.264  0.0000  0.0000  0.0000
 2993SOL     MW21588   1.708   2.796  14.339  0.0000  0.0000  0.0000
 2994SOL     OW21589   3.152   4.686  14.291  0.0000  0.0000  0.0000
 2994SOL    HW121590   3.141   4.774  14.255  0.0000  0.0000  0.0000
 2994SOL    HW221591   3.121   4.693  14.381  0.0000  0.0000  0.0000
 2994SOL     MW21592   3.146   4.699  14.298  0.0000  0.0000  0.0000
 2995SOL     OW21593   3.807   2.838  13.994  0.0000  0.0000  0.0000
 2995SOL    HW121594   3.749   2.786  13.938  0.0000  0.0000  0.0000
 2995SOL    HW221595   3.892   2.834  13.951  0.0000  0.0000  0.0000
 2995SOL     MW21596   3.811   2.831  13.981  0.0000  0.0000  0.0000
 2996SOL     OW21597   3.506   5.053  10.013  0.0000  0.0000  0.0000
 2996SOL    HW121598   3.594   5.051  10.050  0.0000  0.0000  0.0000
 2996SOL    HW221599   3.460   4.980  10.054  0.0000  0.0000  0.0000
 2996SOL     MW21600   3.512   5.043  10.023  0.0000  0.0000  0.0000
 2997SOL     OW21601   1.859   3.345  10.125  0.0000  0.0000  0.0000
 2997SOL    HW121602   1.951   3.366  10.140  0.0000  0.0000  0.0000
 2997SOL    HW221603   1.822   3.425  10.089  0.0000  0.0000  0.0000
 2997SOL     MW21604   1.866   3.359  10.122  0.0000  0.0000  0.0000
 2998SOL     OW21605   1.926   6.759   9.963  0.0000  0.0000  0.0000
 2998SOL    HW121606   1.948   6.807   9.883  0.0000  0.0000  0.0000
 2998SOL    HW221607   1.859   6.812  10.005  0.0000  0.0000  0.0000
 2998SOL     MW21608   1.920   6.772   9.958  0.0000  0.0000  0.0000
 2999SOL     OW21609   0.599   3.399  14.459  0.0000  0.0000  0.0000
 2999SOL    HW121610   0.573   3.453  14.385  0.0000  0.0000  0.0000
 2999SOL    HW221611   0.541   3.323  14.455  0.0000  0.0000  0.0000
 2999SOL     MW21612   0.588   3.396  14.448  0.0000  0.0000  0.0000
 3000SOL     OW21613   4.364   5.453  14.313  0.0000  0.0000  0.0000
 3000SOL    HW121614   4.383   5.421  14.225  0.0000  0.0000  0.0000
 3000SOL    HW221615   4.409   5.537  14.319  0.0000  0.0000  0.0000
 3000SOL     MW21616   4.372   5.460  14.303  0.0000  0.0000  0.0000
 3001SOL     OW21617   4.542   4.844  11.132  0.0000  0.0000  0.0000
 3001SOL    HW121618   4.475   4.848  11.064  0.0000  0.0000  0.0000
 3001SOL    HW221619   4.602   4.916  11.110  0.0000  0.0000  0.0000
 3001SOL     MW21620   4.541   4.854  11.120  0.0000  0.0000  0.0000
 3002SOL     OW21621   2.190   5.393  13.540  0.0000  0.0000  0.0000
 3002SOL    HW121622   2.174   5.423  13.450  0.0000  0.0000  0.0000
 3002SOL    HW221623   2.264   5.446  13.570  0.0000  0.0000  0.0000
 3002SOL     MW21624   2.198   5.404  13.532  0.0000  0.0000  0.0000
 3003SOL     OW21625   2.543   7.196  10.247  0.0000  0.0000  0.0000
 3003SOL    HW121626   2.563   7.271  10.191  0.0000  0.0000  0.0000
 3003SOL    HW221627   2.470   7.225  10.301  0.0000  0.0000  0.0000
 3003SOL     MW21628   2.536   7.210  10.246  0.0000  0.0000  0.0000
 3004SOL     OW21629   2.284   3.864  14.551  0.0000  0.0000  0.0000
 3004SOL    HW121630   2.245   3.942  14.511  0.0000  0.0000  0.0000
 3004SOL    HW221631   2.355   3.840  14.491  0.0000  0.0000  0.0000
 3004SOL     MW21632   2.288   3.871  14.538  0.0000  0.0000  0.0000
 3005SOL     OW21633   4.010   4.047  10.029  0.0000  0.0000  0.0000
 3005SOL    HW121634   4.061   4.128  10.033  0.0000  0.0000  0.0000
 3005SOL    HW221635   3.921   4.076  10.008  0.0000  0.0000  0.0000
 3005SOL     MW21636   4.005   4.062  10.027  0.0000  0.0000  0.0000
 3006SOL     OW21637   1.934   3.299  14.076  0.0000  0.0000  0.0000
 3006SOL    HW121638   1.985   3.317  14.155  0.0000  0.0000  0.0000
 3006SOL    HW221639   1.847   3.334  14.095  0.0000  0.0000  0.0000
 3006SOL     MW21640   1.929   3.306  14.089  0.0000  0.0000  0.0000
 3007SOL     OW21641   4.610   4.501  14.303  0.0000  0.0000  0.0000
 3007SOL    HW121642   4.616   4.592  14.332  0.0000  0.0000  0.0000
 3007SOL    HW221643   4.604   4.451  14.384  0.0000  0.0000  0.0000
 3007SOL     MW21644   4.610   4.507  14.317  0.0000  0.0000  0.0000
 3008SOL     OW21645   1.597   4.320  10.153  0.0000  0.0000  0.0000
 3008SOL    HW121646   1.598   4.266  10.074  0.0000  0.0000  0.0000
 3008SOL    HW221647   1.509   4.359  10.154  0.0000  0.0000  0.0000
 3008SOL     MW21648   1.585   4.318  10.143  0.0000  0.0000  0.0000
 3009SOL     OW21649   2.722   2.646  14.327  0.0000  0.0000  0.0000
 3009SOL    HW121650   2.720   2.552  14.342  0.0000  0.0000  0.0000
 3009SOL    HW221651   2.745   2.684  14.412  0.0000  0.0000  0.0000
 3009SOL     MW21652   2.724   2.639  14.340  0.0000  0.0000  0.0000
 3010SOL     OW21653   4.433   6.009  10.297  0.0000  0.0000  0.0000
 3010SOL    HW121654   4.492   5.949  10.343  0.0000  0.0000  0.0000
 3010SOL    HW221655   4.371   5.952  10.252  0.0000  0.0000  0.0000
 3010SOL     MW21656   4.433   5.994  10.297  0.0000  0.0000  0.0000
 3011SOL     OW21657   4.080   3.136  13.466  0.0000  0.0000  0.0000
 3011SOL    HW121658   4.163   3.176  13.493  0.0000  0.0000  0.0000
 3011SOL    HW221659   4.043   3.101  13.547  0.0000  0.0000  0.0000
 3011SOL     MW21660   4.086   3.137  13.480  0.0000  0.0000  0.0000
 3012SOL     OW21661   1.058   6.317  13.562  0.0000  0.0000  0.0000
 3012SOL    HW121662   1.060   6.331  13.656  0.0000  0.0000  0.0000
 3012SOL    HW221663   0.965   6.304  13.542  0.0000  0.0000  0.0000
 3012SOL     MW21664   1.046   6.317  13.572  0.0000  0.0000  0.0000
 3013SOL     OW21665   4.201   7.200  10.074  0.0000  0.0000  0.0000
 3013SOL    HW121666   4.145   7.261  10.028  0.0000  0.0000  0.0000
 3013SOL    HW221667   4.220   7.131  10.010  0.0000  0.0000  0.0000
 3013SOL     MW21668   4.196   7.199  10.060  0.0000  0.0000  0.0000
 3014SOL     OW21669   0.972   2.778   9.979  0.0000  0.0000  0.0000
 3014SOL    HW121670   1.043   2.724  10.013  0.0000  0.0000  0.0000
 3014SOL    HW221671   0.896   2.756  10.032  0.0000  0.0000  0.0000
 3014SOL     MW21672   0.971   2.768   9.990  0.0000  0.0000  0.0000
 3015SOL     OW21673   4.170   6.400  14.504  0.0000  0.0000  0.0000
 3015SOL    HW121674   4.084   6.365  14.483  0.0000  0.0000  0.0000
 3015SOL    HW221675   4.230   6.326  14.493  0.0000  0.0000  0.0000
 3015SOL     MW21676   4.167   6.385  14.500  0.0000  0.0000  0.0000
 3016SOL     OW21677   3.831   3.534   9.967  0.0000  0.0000  0.0000
 3016SOL    HW121678   3.863   3.471  10.031  0.0000  0.0000  0.0000
 3016SOL    HW221679   3.757   3.489   9.925  0.0000  0.0000  0.0000
 3016SOL     MW21680   3.825   3.520   9.969  0.0000  0.0000  0.0000
 3017SOL     OW21681   0.731   4.986  14.459  0.0000  0.0000  0.0000
 3017SOL    HW121682   0.804   4.955  14.512  0.0000  0.0000  0.0000
 3017SOL    HW221683   0.655   4.938  14.493  0.0000  0.0000  0.0000
 3017SOL     MW21684   0.730   4.975  14.471  0.0000  0.0000  0.0000
 3018SOL     OW21685   0.590   2.610   9.999  0.0000  0.0000  0.0000
 3018SOL    HW121686   0.555   2.595   9.911  0.0000  0.0000  0.0000
 3018SOL    HW221687   0.534   2.558  10.057  0.0000  0.0000  0.0000
 3018SOL     MW21688   0.578   2.601   9.995  0.0000  0.0000  0.0000
 3019SOL     OW21689   0.434   4.777  14.559  0.0000  0.0000  0.0000
 3019SOL    HW121690   0.348   4.736  14.556  0.0000  0.0000  0.0000
 3019SOL    HW221691   0.424   4.858  14.508  0.0000  0.0000  0.0000
 3019SOL     MW21692   0.422   4.782  14.552  0.0000  0.0000  0.0000
 3020SOL     OW21693   2.548   6.616  14.324  0.0000  0.0000  0.0000
 3020SOL    HW121694   2.484   6.675  14.364  0.0000  0.0000  0.0000
 3020SOL    HW221695   2.569   6.657  14.240  0.0000  0.0000  0.0000
 3020SOL     MW21696   2.542   6.629  14.318  0.0000  0.0000  0.0000
 3021SOL     OW21697   0.828   4.870  12.697  0.0000  0.0000  0.0000
 3021SOL    HW121698   0.829   4.787  12.744  0.0000  0.0000  0.0000
 3021SOL    HW221699   0.737   4.898  12.698  0.0000  0.0000  0.0000
 3021SOL     MW21700   0.816   4.863  12.704  0.0000  0.0000  0.0000
 3022SOL     OW21701   1.481   3.535  14.022  0.0000  0.0000  0.0000
 3022SOL    HW121702   1.406   3.545  14.081  0.0000  0.0000  0.0000
 3022SOL    HW221703   1.490   3.621  13.980  0.0000  0.0000  0.0000
 3022SOL     MW21704   1.472   3.548  14.024  0.0000  0.0000  0.0000
 3023SOL     OW21705   3.190   5.282  14.065  0.0000  0.0000  0.0000
 3023SOL    HW121706   3.147   5.281  13.980  0.0000  0.0000  0.0000
 3023SOL    HW221707   3.137   5.224  14.119  0.0000  0.0000  0.0000
 3023SOL     MW21708   3.178   5.274  14.061  0.0000  0.0000  0.0000
 3024SOL     OW21709   4.607   2.653  13.036  0.0000  0.0000  0.0000
 3024SOL    HW121710   4.698   2.681  13.033  0.0000  0.0000  0.0000
 3024SOL    HW221711   4.604   2.586  13.104  0.0000  0.0000  0.0000
 3024SOL     MW21712   4.618   2.648  13.044  0.0000  0.0000  0.0000
 3025SOL     OW21713   3.443   4.432  14.269  0.0000  0.0000  0.0000
 3025SOL    HW121714   3.510   4.484  14.312  0.0000  0.0000  0.0000
 3025SOL    HW221715   3.482   4.346  14.257  0.0000  0.0000  0.0000
 3025SOL     MW21716   3.457   4.428  14.273  0.0000  0.0000  0.0000
 3026SOL     OW21717   0.413   6.647  13.932  0.0000  0.0000  0.0000
 3026SOL    HW121718   0.408   6.735  13.893  0.0000  0.0000  0.0000
 3026SOL    HW221719   0.504   6.639  13.962  0.0000  0.0000  0.0000
 3026SOL     MW21720   0.424   6.658  13.931  0.0000  0.0000  0.0000
 3027SOL     OW21721   4.432   3.785   9.821  0.0000  0.0000  0.0000
 3027SOL    HW121722   4.373   3.844   9.775  0.0000  0.0000  0.0000
 3027SOL    HW221723   4.389   3.768   9.905  0.0000  0.0000  0.0000
 3027SOL     MW21724   4.418   3.790   9.826  0.0000  0.0000  0.0000
 3028SOL     OW21725   1.999   2.787  12.998  0.0000  0.0000  0.0000
 3028SOL    HW121726   1.992   2.741  13.081  0.0000  0.0000  0.0000
 3028SOL    HW221727   1.954   2.731  12.935  0.0000  0.0000  0.0000
 3028SOL     MW21728   1.992   2.773  13.000  0.0000  0.0000  0.0000
 3029SOL     OW21729   3.796   5.880  14.408  0.0000  0.0000  0.0000
 3029SOL    HW121730   3.863   5.909  14.470  0.0000  0.0000  0.0000
 3029SOL    HW221731   3.741   5.820  14.458  0.0000  0.0000  0.0000
 3029SOL     MW21732   3.797   5.876  14.423  0.0000  0.0000  0.0000
 3030SOL     OW21733   2.623   6.173  13.908  0.0000  0.0000  0.0000
 3030SOL    HW121734   2.612   6.232  13.983  0.0000  0.0000  0.0000
 3030SOL    HW221735   2.711   6.138  13.917  0.0000  0.0000  0.0000
 3030SOL     MW21736   2.633   6.177  13.919  0.0000  0.0000  0.0000
 3031SOL     OW21737   4.584   5.260  10.669  0.0000  0.0000  0.0000
 3031SOL    HW121738   4.543   5.197  10.728  0.0000  0.0000  0.0000
 3031SOL    HW221739   4.531   5.339  10.678  0.0000  0.0000  0.0000
 3031SOL     MW21740   4.572   5.263  10.678  0.0000  0.0000  0.0000
 3032SOL     OW21741   1.182   4.648  10.077  0.0000  0.0000  0.0000
 3032SOL    HW121742   1.219   4.700  10.006  0.0000  0.0000  0.0000
 3032SOL    HW221743   1.140   4.711  10.134  0.0000  0.0000  0.0000
 3032SOL     MW21744   1.182   4.663  10.075  0.0000  0.0000  0.0000
 3033SOL     OW21745   1.838   3.600  11.690  0.0000  0.0000  0.0000
 3033SOL    HW121746   1.858   3.673  11.750  0.0000  0.0000  0.0000
 3033SOL    HW221747   1.758   3.562  11.726  0.0000  0.0000  0.0000
 3033SOL     MW21748   1.830   3.605  11.703  0.0000  0.0000  0.0000
 3034SOL     OW21749   2.425   6.267  10.131  0.0000  0.0000  0.0000
 3034SOL    HW121750   2.400   6.198  10.192  0.0000  0.0000  0.0000
 3034SOL    HW221751   2.342   6.303  10.101  0.0000  0.0000  0.0000
 3034SOL     MW21752   2.411   6.262  10.135  0.0000  0.0000  0.0000
 3035SOL     OW21753   4.352   3.461  10.617  0.0000  0.0000  0.0000
 3035SOL    HW121754   4.352   3.420  10.530  0.0000  0.0000  0.0000
 3035SOL    HW221755   4.289   3.410  10.668  0.0000  0.0000  0.0000
 3035SOL     MW21756   4.344   3.449  10.612  0.0000  0.0000  0.0000
 3036SOL     OW21757   3.067   4.177   9.830  0.0000  0.0000  0.0000
 3036SOL    HW121758   3.110   4.107   9.880  0.0000  0.0000  0.0000
 3036SOL    HW221759   3.111   4.257   9.858  0.0000  0.0000  0.0000
 3036SOL     MW21760   3.078   4.178   9.841  0.0000  0.0000  0.0000
 3037SOL     OW21761   1.414   6.467   9.973  0.0000  0.0000  0.0000
 3037SOL    HW121762   1.439   6.376   9.958  0.0000  0.0000  0.0000
 3037SOL    HW221763   1.353   6.487   9.902  0.0000  0.0000  0.0000
 3037SOL     MW21764   1.409   6.458   9.962  0.0000  0.0000  0.0000
 3038SOL     OW21765   4.434   7.098   9.770  0.0000  0.0000  0.0000
 3038SOL    HW121766   4.453   7.029   9.706  0.0000  0.0000  0.0000
 3038SOL    HW221767   4.354   7.069   9.813  0.0000  0.0000  0.0000
 3038SOL     MW21768   4.426   7.085   9.767  0.0000  0.0000  0.0000
 3039SOL     OW21769   2.052   2.757  13.940  0.0000  0.0000  0.0000
 3039SOL    HW121770   2.037   2.851  13.928  0.0000  0.0000  0.0000
 3039SOL    HW221771   2.077   2.749  14.032  0.0000  0.0000  0.0000
 3039SOL     MW21772   2.054   2.769  13.951  0.0000  0.0000  0.0000
 3040SOL     OW21773   0.910   3.016  10.456  0.0000  0.0000  0.0000
 3040SOL    HW121774   0.985   3.056  10.411  0.0000  0.0000  0.0000
 3040SOL    HW221775   0.883   2.945  10.398  0.0000  0.0000  0.0000
 3040SOL     MW21776   0.917   3.012  10.442  0.0000  0.0000  0.0000
 3041SOL     OW21777   1.479   5.497  14.418  0.0000  0.0000  0.0000
 3041SOL    HW121778   1.414   5.565  14.432  0.0000  0.0000  0.0000
 3041SOL    HW221779   1.509   5.473  14.506  0.0000  0.0000  0.0000
 3041SOL     MW21780   1.475   5.503  14.431  0.0000  0.0000  0.0000
 3042SOL     OW21781   2.839   3.210  10.116  0.0000  0.0000  0.0000
 3042SOL    HW121782   2.782   3.270  10.163  0.0000  0.0000  0.0000
 3042SOL    HW221783   2.838   3.241  10.026  0.0000  0.0000  0.0000
 3042SOL     MW21784   2.832   3.222  10.111  0.0000  0.0000  0.0000
 3043SOL     OW21785   3.557   2.879  10.535  0.0000  0.0000  0.0000
 3043SOL    HW121786   3.494   2.839  10.595  0.0000  0.0000  0.0000
 3043SOL    HW221787   3.563   2.817  10.462  0.0000  0.0000  0.0000
 3043SOL     MW21788   3.549   2.866  10.533  0.0000  0.0000  0.0000
 3044SOL     OW21789   2.899   3.216   9.827  0.0000  0.0000  0.0000
 3044SOL    HW121790   2.967   3.156   9.857  0.0000  0.0000  0.0000
 3044SOL    HW221791   2.944   3.299   9.815  0.0000  0.0000  0.0000
 3044SOL     MW21792   2.914   3.219   9.829  0.0000  0.0000  0.0000
 3045SOL     OW21793   2.929   7.080  14.017  0.0000  0.0000  0.0000
 3045SOL    HW121794   2.898   7.155  14.068  0.0000  0.0000  0.0000
 3045SOL    HW221795   2.919   7.005  14.076  0.0000  0.0000  0.0000
 3045SOL     MW21796   2.924   7.080  14.032  0.0000  0.0000  0.0000
 3046SOL     OW21797   0.707   3.741  13.662  0.0000  0.0000  0.0000
 3046SOL    HW121798   0.688   3.655  13.625  0.0000  0.0000  0.0000
 3046SOL    HW221799   0.798   3.735  13.693  0.0000  0.0000  0.0000
 3046SOL     MW21800   0.716   3.729  13.661  0.0000  0.0000  0.0000
 3047SOL     OW21801   2.768   6.922  10.287  0.0000  0.0000  0.0000
 3047SOL    HW121802   2.828   6.979  10.336  0.0000  0.0000  0.0000
 3047SOL    HW221803   2.688   6.974  10.278  0.0000  0.0000  0.0000
 3047SOL     MW21804   2.766   6.937  10.292  0.0000  0.0000  0.0000
 3048SOL     OW21805   3.400   5.412  14.379  0.0000  0.0000  0.0000
 3048SOL    HW121806   3.343   5.472  14.428  0.0000  0.0000  0.0000
 3048SOL    HW221807   3.359   5.326  14.391  0.0000  0.0000  0.0000
 3048SOL     MW21808   3.387   5.408  14.387  0.0000  0.0000  0.0000
 3049SOL     OW21809   0.716   5.395  11.741  0.0000  0.0000  0.0000
 3049SOL    HW121810   0.723   5.450  11.819  0.0000  0.0000  0.0000
 3049SOL    HW221811   0.624   5.403  11.714  0.0000  0.0000  0.0000
 3049SOL     MW21812   0.705   5.403  11.748  0.0000  0.0000  0.0000
 3050SOL     OW21813   4.580   3.364  14.356  0.0000  0.0000  0.0000
 3050SOL    HW121814   4.620   3.418  14.288  0.0000  0.0000  0.0000
 3050SOL    HW221815   4.493   3.343  14.322  0.0000  0.0000  0.0000
 3050SOL     MW21816   4.574   3.368  14.343  0.0000  0.0000  0.0000
 3051SOL     OW21817   4.361   6.200  12.487  0.0000  0.0000  0.0000
 3051SOL    HW121818   4.321   6.184  12.401  0.0000  0.0000  0.0000
 3051SOL    HW221819   4.408   6.119  12.507  0.0000  0.0000  0.0000
 3051SOL     MW21820   4.362   6.187  12.478  0.0000  0.0000  0.0000
 3052SOL     OW21821   0.546   5.347  14.338  0.0000  0.0000  0.0000
 3052SOL    HW121822   0.594   5.320  14.417  0.0000  0.0000  0.0000
 3052SOL    HW221823   0.583   5.432  14.316  0.0000  0.0000  0.0000
 3052SOL     MW21824   0.557   5.355  14.346  0.0000  0.0000  0.0000
 3053SOL     OW21825   0.201   5.779   9.689  0.0000  0.0000  0.0000
 3053SOL    HW121826   0.285   5.746   9.719  0.0000  0.0000  0.0000
 3053SOL    HW221827   0.175   5.843   9.755  0.0000  0.0000  0.0000
 3053SOL     MW21828   0.208   5.783   9.702  0.0000  0.0000  0.0000
 3054SOL     OW21829   3.091   2.923  10.416  0.0000  0.0000  0.0000
 3054SOL    HW121830   3.038   2.851  10.383  0.0000  0.0000  0.0000
 3054SOL    HW221831   3.180   2.902  10.390  0.0000  0.0000  0.0000
 3054SOL     MW21832   3.096   2.911  10.408  0.0000  0.0000  0.0000
 3055SOL     OW21833   2.852   5.672  14.257  0.0000  0.0000  0.0000
 3055SOL    HW121834   2.792   5.736  14.219  0.0000  0.0000  0.0000
 3055SOL    HW221835   2.801   5.631  14.328  0.0000  0.0000  0.0000
 3055SOL     MW21836   2.837   5.675  14.262  0.0000  0.0000  0.0000
 3056SOL     OW21837   2.263   5.203  14.478  0.0000  0.0000  0.0000
 3056SOL    HW121838   2.287   5.111  14.494  0.0000  0.0000  0.0000
 3056SOL    HW221839   2.313   5.227  14.400  0.0000  0.0000  0.0000
 3056SOL     MW21840   2.273   5.194  14.470  0.0000  0.0000  0.0000
 3057SOL     OW21841   2.423   6.131  14.170  0.0000  0.0000  0.0000
 3057SOL    HW121842   2.481   6.055  14.182  0.0000  0.0000  0.0000
 3057SOL    HW221843   2.392   6.122  14.080  0.0000  0.0000  0.0000
 3057SOL     MW21844   2.427   6.120  14.159  0.0000  0.0000  0.0000
 3058SOL     OW21845   3.442   3.164  14.347  0.0000  0.0000  0.0000
 3058SOL    HW121846   3.419   3.254  14.372  0.0000  0.0000  0.0000
 3058SOL    HW221847   3.364   3.113  14.369  0.0000  0.0000  0.0000
 3058SOL     MW21848   3.428   3.169  14.353  0.0000  0.0000  0.0000
 3059SOL     OW21849   1.933   2.689  13.253  0.0000  0.0000  0.0000
 3059SOL    HW121850   1.849   2.732  13.266  0.0000  0.0000  0.0000
 3059SOL    HW221851   1.997   2.748  13.294  0.0000  0.0000  0.0000
 3059SOL     MW21852   1.930   2.702  13.260  0.0000  0.0000  0.0000
 3060SOL     OW21853   2.045   3.082  10.990  0.0000  0.0000  0.0000
 3060SOL    HW121854   2.093   3.111  11.068  0.0000  0.0000  0.0000
 3060SOL    HW221855   1.955   3.110  11.006  0.0000  0.0000  0.0000
 3060SOL     MW21856   2.039   3.089  11.003  0.0000  0.0000  0.0000
 3061SOL     OW21857   2.781   2.910  13.968  0.0000  0.0000  0.0000
 3061SOL    HW121858   2.745   2.889  13.881  0.0000  0.0000  0.0000
 3061SOL    HW221859   2.811   3.000  13.961  0.0000  0.0000  0.0000
 3061SOL     MW21860   2.780   2.919  13.955  0.0000  0.0000  0.0000
 3062SOL     OW21861   0.170   5.332  10.788  0.0000  0.0000  0.0000
 3062SOL    HW121862   0.153   5.364  10.877  0.0000  0.0000  0.0000
 3062SOL    HW221863   0.084   5.308  10.754  0.0000  0.0000  0.0000
 3062SOL     MW21864   0.156   5.333  10.795  0.0000  0.0000  0.0000
 3063SOL     OW21865   1.143   2.859  13.708  0.0000  0.0000  0.0000
 3063SOL    HW121866   1.096   2.847  13.626  0.0000  0.0000  0.0000
 3063SOL    HW221867   1.235   2.861  13.683  0.0000  0.0000  0.0000
 3063SOL     MW21868   1.149   2.857  13.694  0.0000  0.0000  0.0000
 3064SOL     OW21869   0.761   6.793  10.049  0.0000  0.0000  0.0000
 3064SOL    HW121870   0.805   6.844   9.981  0.0000  0.0000  0.0000
 3064SOL    HW221871   0.670   6.786  10.019  0.0000  0.0000  0.0000
 3064SOL     MW21872   0.755   6.799  10.036  0.0000  0.0000  0.0000
 3065SOL     OW21873   3.556   5.739  14.136  0.0000  0.0000  0.0000
 3065SOL    HW121874   3.536   5.798  14.208  0.0000  0.0000  0.0000
 3065SOL    HW221875   3.474   5.693  14.118  0.0000  0.0000  0.0000
 3065SOL     MW21876   3.543   5.741  14.143  0.0000  0.0000  0.0000
 3066SOL     OW21877   0.822   6.282  14.402  0.0000  0.0000  0.0000
 3066SOL    HW121878   0.767   6.310  14.328  0.0000  0.0000  0.0000
 3066SOL    HW221879   0.777   6.317  14.479  0.0000  0.0000  0.0000
 3066SOL     MW21880   0.809   6.290  14.402  0.0000  0.0000  0.0000
 3067SOL     OW21881   3.808   5.320   9.832  0.0000  0.0000  0.0000
 3067SOL    HW121882   3.718   5.298   9.810  0.0000  0.0000  0.0000
 3067SOL    HW221883   3.822   5.407   9.795  0.0000  0.0000  0.0000
 3067SOL     MW21884   3.798   5.329   9.824  0.0000  0.0000  0.0000
 3068SOL     OW21885   1.308   4.338  14.431  0.0000  0.0000  0.0000
 3068SOL    HW121886   1.394   4.309  14.463  0.0000  0.0000  0.0000
 3068SOL    HW221887   1.246   4.275  14.468  0.0000  0.0000  0.0000
 3068SOL     MW21888   1.311   4.326  14.440  0.0000  0.0000  0.0000
 3069SOL     OW21889   0.630   3.643  14.315  0.0000  0.0000  0.0000
 3069SOL    HW121890   0.589   3.640  14.229  0.0000  0.0000  0.0000
 3069SOL    HW221891   0.561   3.677  14.372  0.0000  0.0000  0.0000
 3069SOL     MW21892   0.615   3.647  14.312  0.0000  0.0000  0.0000
 3070SOL     OW21893   3.172   5.893  10.859  0.0000  0.0000  0.0000
 3070SOL    HW121894   3.107   5.906  10.790  0.0000  0.0000  0.0000
 3070SOL    HW221895   3.121   5.866  10.935  0.0000  0.0000  0.0000
 3070SOL     MW21896   3.157   5.891  10.860  0.0000  0.0000  0.0000
 3071SOL     OW21897   0.089   4.740  14.175  0.0000  0.0000  0.0000
 3071SOL    HW121898   0.141   4.760  14.097  0.0000  0.0000  0.0000
 3071SOL    HW221899   0.001   4.768  14.153  0.0000  0.0000  0.0000
 3071SOL     MW21900   0.084   4.746  14.162  0.0000  0.0000  0.0000
 3072SOL     OW21901   0.986   6.606  12.113  0.0000  0.0000  0.0000
 3072SOL    HW121902   1.020   6.518  12.097  0.0000  0.0000  0.0000
 3072SOL    HW221903   0.896   6.603  12.083  0.0000  0.0000  0.0000
 3072SOL     MW21904   0.979   6.594  12.107  0.0000  0.0000  0.0000
 3073SOL     OW21905   3.738   3.291  11.071  0.0000  0.0000  0.0000
 3073SOL    HW121906   3.710   3.295  11.163  0.0000  0.0000  0.0000
 3073SOL    HW221907   3.676   3.230  11.030  0.0000  0.0000  0.0000
 3073SOL     MW21908   3.726   3.284  11.078  0.0000  0.0000  0.0000
 3074SOL     OW21909   3.078   3.251  13.341  0.0000  0.0000  0.0000
 3074SOL    HW121910   3.111   3.287  13.259  0.0000  0.0000  0.0000
 3074SOL    HW221911   3.030   3.172  13.315  0.0000  0.0000  0.0000
 3074SOL     MW21912   3.076   3.245  13.327  0.0000  0.0000  0.0000
 3075SOL     OW21913   0.045   5.668  12.781  0.0000  0.0000  0.0000
 3075SOL    HW121914   0.049   5.759  12.751  0.0000  0.0000  0.0000
 3075SOL    HW221915   0.101   5.620  12.720  0.0000  0.0000  0.0000
 3075SOL     MW21916   0.053   5.673  12.769  0.0000  0.0000  0.0000
 3076SOL     OW21917   0.871   2.762  13.266  0.0000  0.0000  0.0000
 3076SOL    HW121918   0.786   2.788  13.232  0.0000  0.0000  0.0000
 3076SOL    HW221919   0.921   2.736  13.189  0.0000  0.0000  0.0000
 3076SOL     MW21920   0.866   2.762  13.252  0.0000  0.0000  0.0000
 3077SOL     OW21921   2.001   6.900   9.756  0.0000  0.0000  0.0000
 3077SOL    HW121922   2.064   6.943   9.698  0.0000  0.0000  0.0000
 3077SOL    HW221923   1.916   6.915   9.714  0.0000  0.0000  0.0000
 3077SOL     MW21924   1.998   6.907   9.743  0.0000  0.0000  0.0000
 3078SOL     OW21925   2.031   4.257  13.817  0.0000  0.0000  0.0000
 3078SOL    HW121926   2.025   4.337  13.869  0.0000  0.0000  0.0000
 3078SOL    HW221927   1.950   4.209  13.838  0.0000  0.0000  0.0000
 3078SOL     MW21928   2.019   4.261  13.827  0.0000  0.0000  0.0000
 3079SOL     OW21929   4.297   5.734  10.238  0.0000  0.0000  0.0000
 3079SOL    HW121930   4.214   5.723  10.193  0.0000  0.0000  0.0000
 3079SOL    HW221931   4.362   5.698  10.178  0.0000  0.0000  0.0000
 3079SOL     MW21932   4.295   5.728  10.224  0.0000  0.0000  0.0000
 3080SOL     OW21933   1.786   5.410  14.002  0.0000  0.0000  0.0000
 3080SOL    HW121934   1.854   5.430  13.938  0.0000  0.0000  0.0000
 3080SOL    HW221935   1.806   5.467  14.077  0.0000  0.0000  0.0000
 3080SOL     MW21936   1.797   5.420  14.004  0.0000  0.0000  0.0000
 3081SOL     OW21937   1.953   3.580  14.368  0.0000  0.0000  0.0000
 3081SOL    HW121938   1.907   3.506  14.407  0.0000  0.0000  0.0000
 3081SOL    HW221939   1.970   3.553  14.277  0.0000  0.0000  0.0000
 3081SOL     MW21940   1.949   3.567  14.361  0.0000  0.0000  0.0000
 3082SOL     OW21941   1.427   3.835  14.058  0.0000  0.0000  0.0000
 3082SOL    HW121942   1.484   3.872  14.125  0.0000  0.0000  0.0000
 3082SOL    HW221943   1.340   3.832  14.099  0.0000  0.0000  0.0000
 3082SOL     MW21944   1.423   3.839  14.072  0.0000  0.0000  0.0000
 3083SOL     OW21945   1.339   6.398  14.437  0.0000  0.0000  0.0000
 3083SOL    HW121946   1.368   6.396  14.528  0.0000  0.0000  0.0000
 3083SOL    HW221947   1.244   6.385  14.442  0.0000  0.0000  0.0000
 3083SOL     MW21948   1.331   6.396  14.449  0.0000  0.0000  0.0000
 3084SOL     OW21949   3.145   6.387  14.125  0.0000  0.0000  0.0000
 3084SOL    HW121950   3.229   6.413  14.164  0.0000  0.0000  0.0000
 3084SOL    HW221951   3.081   6.408  14.193  0.0000  0.0000  0.0000
 3084SOL     MW21952   3.148   6.393  14.139  0.0000  0.0000  0.0000
 3085SOL     OW21953   0.639   5.668   9.952  0.0000  0.0000  0.0000
 3085SOL    HW121954   0.712   5.617   9.915  0.0000  0.0000  0.0000
 3085SOL    HW221955   0.675   5.756   9.963  0.0000  0.0000  0.0000
 3085SOL     MW21956   0.654   5.673   9.948  0.0000  0.0000  0.0000
 3086SOL     OW21957   0.837   3.483  10.433  0.0000  0.0000  0.0000
 3086SOL    HW121958   0.921   3.438  10.439  0.0000  0.0000  0.0000
 3086SOL    HW221959   0.797   3.471  10.519  0.0000  0.0000  0.0000
 3086SOL     MW21960   0.843   3.476  10.445  0.0000  0.0000  0.0000
 3087SOL     OW21961   3.156   4.761   9.981  0.0000  0.0000  0.0000
 3087SOL    HW121962   3.073   4.803  10.004  0.0000  0.0000  0.0000
 3087SOL    HW221963   3.156   4.760   9.885  0.0000  0.0000  0.0000
 3087SOL     MW21964   3.145   4.766   9.972  0.0000  0.0000  0.0000
 3088SOL     OW21965   2.004   5.553  14.315  0.0000  0.0000  0.0000
 3088SOL    HW121966   2.017   5.459  14.312  0.0000  0.0000  0.0000
 3088SOL    HW221967   2.028   5.584  14.228  0.0000  0.0000  0.0000
 3088SOL     MW21968   2.009   5.545  14.303  0.0000  0.0000  0.0000
 3089SOL     OW21969   4.470   7.199  10.510  0.0000  0.0000  0.0000
 3089SOL    HW121970   4.477   7.161  10.423  0.0000  0.0000  0.0000
 3089SOL    HW221971   4.458   7.293  10.494  0.0000  0.0000  0.0000
 3089SOL     MW21972   4.469   7.207  10.497  0.0000  0.0000  0.0000
 3090SOL     OW21973   0.312   6.646  14.505  0.0000  0.0000  0.0000
 3090SOL    HW121974   0.259   6.724  14.518  0.0000  0.0000  0.0000
 3090SOL    HW221975   0.340   6.650  14.413  0.0000  0.0000  0.0000
 3090SOL     MW21976   0.309   6.657  14.494  0.0000  0.0000  0.0000
 3091SOL     OW21977   1.820   2.817   9.655  0.0000  0.0000  0.0000
 3091SOL    HW121978   1.859   2.767   9.727  0.0000  0.0000  0.0000
 3091SOL    HW221979   1.735   2.776   9.640  0.0000  0.0000  0.0000
 3091SOL     MW21980   1.814   2.805   9.663  0.0000  0.0000  0.0000
 3092SOL     OW21981   4.430   6.268  10.170  0.0000  0.0000  0.0000
 3092SOL    HW121982   4.425   6.177  10.200  0.0000  0.0000  0.0000
 3092SOL    HW221983   4.443   6.261  10.075  0.0000  0.0000  0.0000
 3092SOL     MW21984   4.431   6.255  10.161  0.0000  0.0000  0.0000
 3093SOL     OW21985   2.999   6.192  10.724  0.0000  0.0000  0.0000
 3093SOL    HW121986   3.008   6.245  10.645  0.0000  0.0000  0.0000
 3093SOL    HW221987   2.959   6.250  10.788  0.0000  0.0000  0.0000
 3093SOL     MW21988   2.995   6.207  10.722  0.0000  0.0000  0.0000
 3094SOL     OW21989   1.105   3.146   9.823  0.0000  0.0000  0.0000
 3094SOL    HW121990   1.165   3.076   9.849  0.0000  0.0000  0.0000
 3094SOL    HW221991   1.051   3.107   9.755  0.0000  0.0000  0.0000
 3094SOL     MW21992   1.106   3.132   9.817  0.0000  0.0000  0.0000
 3095SOL     OW21993   3.607   6.767  13.798  0.0000  0.0000  0.0000
 3095SOL    HW121994   3.524   6.718  13.798  0.0000  0.0000  0.0000
 3095SOL    HW221995   3.667   6.712  13.848  0.0000  0.0000  0.0000
 3095SOL     MW21996   3.604   6.753  13.805  0.0000  0.0000  0.0000
 3096SOL     OW21997   3.483   3.071  13.382  0.0000  0.0000  0.0000
 3096SOL    HW121998   3.450   3.033  13.301  0.0000  0.0000  0.0000
 3096SOL    HW221999   3.576   3.046  13.383  0.0000  0.0000  0.0000
 3096SOL     MW22000   3.491   3.062  13.372  0.0000  0.0000  0.0000
 3097SOL     OW22001   0.626   4.578  10.135  0.0000  0.0000  0.0000
 3097SOL    HW122002   0.697   4.641  10.142  0.0000  0.0000  0.0000
 3097SOL    HW222003   0.549   4.625  10.167  0.0000  0.0000  0.0000
 3097SOL     MW22004   0.625   4.592  10.140  0.0000  0.0000  0.0000
 3098SOL     OW22005   2.826   4.607  10.159  0.0000  0.0000  0.0000
 3098SOL    HW122006   2.864   4.650  10.236  0.0000  0.0000  0.0000
 3098SOL    HW222007   2.890   4.540  10.135  0.0000  0.0000  0.0000
 3098SOL     MW22008   2.839   4.604  10.166  0.0000  0.0000  0.0000
 3099SOL     OW22009   0.868   3.461  14.350  0.0000  0.0000  0.0000
 3099SOL    HW122010   0.936   3.501  14.404  0.0000  0.0000  0.0000
 3099SOL    HW222011   0.795   3.447  14.410  0.0000  0.0000  0.0000
 3099SOL     MW22012   0.867   3.465  14.365  0.0000  0.0000  0.0000
 3100SOL     OW22013   1.064   6.378  14.477  0.0000  0.0000  0.0000
 3100SOL    HW122014   1.029   6.429  14.550  0.0000  0.0000  0.0000
 3100SOL    HW222015   0.997   6.312  14.459  0.0000  0.0000  0.0000
 3100SOL     MW22016   1.051   6.376  14.484  0.0000  0.0000  0.0000
 3101SOL     OW22017   2.768   2.882  10.660  0.0000  0.0000  0.0000
 3101SOL    HW122018   2.705   2.813  10.639  0.0000  0.0000  0.0000
 3101SOL    HW222019   2.744   2.910  10.748  0.0000  0.0000  0.0000
 3101SOL     MW22020   2.757   2.876  10.669  0.0000  0.0000  0.0000
 3102SOL     OW22021   2.778   2.749  13.681  0.0000  0.0000  0.0000
 3102SOL    HW122022   2.786   2.829  13.631  0.0000  0.0000  0.0000
 3102SOL    HW222023   2.684   2.738  13.695  0.0000  0.0000  0.0000
 3102SOL     MW22024   2.767   2.758  13.676  0.0000  0.0000  0.0000
 3103SOL     OW22025   2.186   6.541  10.251  0.0000  0.0000  0.0000
 3103SOL    HW122026   2.179   6.622  10.200  0.0000  0.0000  0.0000
 3103SOL    HW222027   2.201   6.473  10.186  0.0000  0.0000  0.0000
 3103SOL     MW22028   2.187   6.543  10.236  0.0000  0.0000  0.0000
 3104SOL     OW22029   1.212   3.687  10.906  0.0000  0.0000  0.0000
 3104SOL    HW122030   1.117   3.689  10.893  0.0000  0.0000  0.0000
 3104SOL    HW222031   1.248   3.684  10.818  0.0000  0.0000  0.0000
 3104SOL     MW22032   1.204   3.687  10.893  0.0000  0.0000  0.0000
 3105SOL     OW22033   1.451   2.936  14.353  0.0000  0.0000  0.0000
 3105SOL    HW122034   1.539   2.897  14.345  0.0000  0.0000  0.0000
 3105SOL    HW222035   1.461   3.003  14.420  0.0000  0.0000  0.0000
 3105SOL     MW22036   1.464   2.939  14.360  0.0000  0.0000  0.0000
 3106SOL     OW22037   3.098   7.111  11.661  0.0000  0.0000  0.0000
 3106SOL    HW122038   3.182   7.085  11.624  0.0000  0.0000  0.0000
 3106SOL    HW222039   3.121   7.177  11.727  0.0000  0.0000  0.0000
 3106SOL     MW22040   3.112   7.116  11.665  0.0000  0.0000  0.0000
 3107SOL     OW22041   3.009   4.406  10.117  0.0000  0.0000  0.0000
 3107SOL    HW122042   2.949   4.354  10.063  0.0000  0.0000  0.0000
 3107SOL    HW222043   3.092   4.402  10.070  0.0000  0.0000  0.0000
 3107SOL     MW22044   3.012   4.398  10.104  0.0000  0.0000  0.0000
 3108SOL     OW22045   0.436   3.882  13.599  0.0000  0.0000  0.0000
 3108SOL    HW122046   0.432   3.965  13.551  0.0000  0.0000  0.0000
 3108SOL    HW222047   0.528   3.856  13.594  0.0000  0.0000  0.0000
 3108SOL     MW22048   0.447   3.890  13.592  0.0000  0.0000  0.0000
 3109SOL     OW22049   2.452   6.958  13.097  0.0000  0.0000  0.0000
 3109SOL    HW122050   2.399   7.037  13.091  0.0000  0.0000  0.0000
 3109SOL    HW222051   2.468   6.933  13.005  0.0000  0.0000  0.0000
 3109SOL     MW22052   2.447   6.965  13.084  0.0000  0.0000  0.0000
 3110SOL     OW22053   1.001   5.108  14.105  0.0000  0.0000  0.0000
 3110SOL    HW122054   1.065   5.175  14.083  0.0000  0.0000  0.0000
 3110SOL    HW222055   1.013   5.094  14.199  0.0000  0.0000  0.0000
 3110SOL     MW22056   1.011   5.115  14.115  0.0000  0.0000  0.0000
 3111SOL     OW22057   0.409   5.556  12.801  0.0000  0.0000  0.0000
 3111SOL    HW122058   0.442   5.595  12.882  0.0000  0.0000  0.0000
 3111SOL    HW222059   0.420   5.624  12.735  0.0000  0.0000  0.0000
 3111SOL     MW22060   0.415   5.570  12.803  0.0000  0.0000  0.0000
 3112SOL     OW22061   3.793   5.996   9.835  0.0000  0.0000  0.0000
 3112SOL    HW122062   3.716   6.028   9.881  0.0000  0.0000  0.0000
 3112SOL    HW222063   3.760   5.928   9.776  0.0000  0.0000  0.0000
 3112SOL     MW22064   3.779   5.991   9.833  0.0000  0.0000  0.0000
 3113SOL     OW22065   1.958   5.150  14.091  0.0000  0.0000  0.0000
 3113SOL    HW122066   1.988   5.184  14.175  0.0000  0.0000  0.0000
 3113SOL    HW222067   1.908   5.222  14.053  0.0000  0.0000  0.0000
 3113SOL     MW22068   1.955   5.164  14.097  0.0000  0.0000  0.0000
 3114SOL     OW22069   1.467   5.235  14.313  0.0000  0.0000  0.0000
 3114SOL    HW122070   1.498   5.196  14.395  0.0000  0.0000  0.0000
 3114SOL    HW222071   1.468   5.329  14.329  0.0000  0.0000  0.0000
 3114SOL     MW22072   1.471   5.242  14.326  0.0000  0.0000  0.0000
 3115SOL     OW22073   3.095   6.725  13.972  0.0000  0.0000  0.0000
 3115SOL    HW122074   3.041   6.714  13.894  0.0000  0.0000  0.0000
 3115SOL    HW222075   3.185   6.711  13.941  0.0000  0.0000  0.0000
 3115SOL     MW22076   3.100   6.722  13.958  0.0000  0.0000  0.0000
 3116SOL     OW22077   1.598   3.919  14.282  0.0000  0.0000  0.0000
 3116SOL    HW122078   1.535   3.977  14.326  0.0000  0.0000  0.0000
 3116SOL    HW222079   1.667   3.978  14.251  0.0000  0.0000  0.0000
 3116SOL     MW22080   1.599   3.935  14.283  0.0000  0.0000  0.0000
 3117SOL     OW22081   1.389   3.686  14.535  0.0000  0.0000  0.0000
 3117SOL    HW122082   1.442   3.632  14.594  0.0000  0.0000  0.0000
 3117SOL    HW222083   1.353   3.755  14.592  0.0000  0.0000  0.0000
 3117SOL     MW22084   1.391   3.688  14.550  0.0000  0.0000  0.0000
 3118SOL     OW22085   0.793   3.649  10.052  0.0000  0.0000  0.0000
 3118SOL    HW122086   0.700   3.644  10.031  0.0000  0.0000  0.0000
 3118SOL    HW222087   0.795   3.686  10.141  0.0000  0.0000  0.0000
 3118SOL     MW22088   0.781   3.654  10.061  0.0000  0.0000  0.0000
 3119SOL     OW22089   2.753   3.894   9.652  0.0000  0.0000  0.0000
 3119SOL    HW122090   2.710   3.874   9.735  0.0000  0.0000  0.0000
 3119SOL    HW222091   2.691   3.865   9.585  0.0000  0.0000  0.0000
 3119SOL     MW22092   2.739   3.888   9.654  0.0000  0.0000  0.0000
 3120SOL     OW22093   3.533   6.186  13.922  0.0000  0.0000  0.0000
 3120SOL    HW122094   3.572   6.110  13.966  0.0000  0.0000  0.0000
 3120SOL    HW222095   3.443   6.159  13.904  0.0000  0.0000  0.0000
 3120SOL     MW22096   3.526   6.172  13.925  0.0000  0.0000  0.0000
 3121SOL     OW22097   4.087   7.079  10.334  0.0000  0.0000  0.0000
 3121SOL    HW122098   4.158   7.015  10.337  0.0000  0.0000  0.0000
 3121SOL    HW222099   4.109   7.137  10.261  0.0000  0.0000  0.0000
 3121SOL     MW22100   4.099   7.078  10.325  0.0000  0.0000  0.0000
 3122SOL     OW22101   4.189   4.120  10.564  0.0000  0.0000  0.0000
 3122SOL    HW122102   4.256   4.055  10.585  0.0000  0.0000  0.0000
 3122SOL    HW222103   4.125   4.113  10.635  0.0000  0.0000  0.0000
 3122SOL     MW22104   4.190   4.111  10.576  0.0000  0.0000  0.0000
 3123SOL     OW22105   2.522   2.622  13.490  0.0000  0.0000  0.0000
 3123SOL    HW122106   2.491   2.670  13.566  0.0000  0.0000  0.0000
 3123SOL    HW222107   2.471   2.541  13.491  0.0000  0.0000  0.0000
 3123SOL     MW22108   2.511   2.617  13.500  0.0000  0.0000  0.0000
 3124SOL     OW22109   1.404   5.160  13.916  0.0000  0.0000  0.0000
 3124SOL    HW122110   1.336   5.137  13.852  0.0000  0.0000  0.0000
 3124SOL    HW222111   1.446   5.077  13.937  0.0000  0.0000  0.0000
 3124SOL     MW22112   1.400   5.146  13.910  0.0000  0.0000  0.0000
 3125SOL     OW22113   1.690   6.562  12.203  0.0000  0.0000  0.0000
 3125SOL    HW122114   1.769   6.576  12.152  0.0000  0.0000  0.0000
 3125SOL    HW222115   1.649   6.484  12.164  0.0000  0.0000  0.0000
 3125SOL     MW22116   1.695   6.553  12.191  0.0000  0.0000  0.0000
 3126SOL     OW22117   4.315   3.709  10.080  0.0000  0.0000  0.0000
 3126SOL    HW122118   4.320   3.749  10.167  0.0000  0.0000  0.0000
 3126SOL    HW222119   4.249   3.760  10.033  0.0000  0.0000  0.0000
 3126SOL     MW22120   4.307   3.721  10.085  0.0000  0.0000  0.0000
 3127SOL     OW22121   2.520   3.000  10.374  0.0000  0.0000  0.0000
 3127SOL    HW122122   2.517   3.080  10.427  0.0000  0.0000  0.0000
 3127SOL    HW222123   2.611   2.994  10.346  0.0000  0.0000  0.0000
 3127SOL     MW22124   2.531   3.010  10.378  0.0000  0.0000  0.0000
 3128SOL     OW22125   0.344   4.497   9.656  0.0000  0.0000  0.0000
 3128SOL    HW122126   0.269   4.532   9.608  0.0000  0.0000  0.0000
 3128SOL    HW222127   0.415   4.559   9.639  0.0000  0.0000  0.0000
 3128SOL     MW22128   0.343   4.510   9.648  0.0000  0.0000  0.0000
 3129SOL     OW22129   2.900   5.210   9.692  0.0000  0.0000  0.0000
 3129SOL    HW122130   2.983   5.169   9.717  0.0000  0.0000  0.0000
 3129SOL    HW222131   2.922   5.303   9.680  0.0000  0.0000  0.0000
 3129SOL     MW22132   2.914   5.217   9.694  0.0000  0.0000  0.0000
 3130SOL     OW22133   1.811   6.963  14.466  0.0000  0.0000  0.0000
 3130SOL    HW122134   1.802   6.869  14.452  0.0000  0.0000  0.0000
 3130SOL    HW222135   1.725   7.000  14.443  0.0000  0.0000  0.0000
 3130SOL     MW22136   1.798   6.956  14.461  0.0000  0.0000  0.0000
 3131SOL     OW22137   3.474   4.399   9.989  0.0000  0.0000  0.0000
 3131SOL    HW122138   3.494   4.341   9.915  0.0000  0.0000  0.0000
 3131SOL    HW222139   3.492   4.487   9.955  0.0000  0.0000  0.0000
 3131SOL     MW22140   3.479   4.403   9.974  0.0000  0.0000  0.0000
 3132SOL     OW22141   4.026   6.868  11.363  0.0000  0.0000  0.0000
 3132SOL    HW122142   4.088   6.884  11.434  0.0000  0.0000  0.0000
 3132SOL    HW222143   4.072   6.895  11.284  0.0000  0.0000  0.0000
 3132SOL     MW22144   4.040   6.873  11.362  0.0000  0.0000  0.0000
 3133SOL     OW22145   0.460   3.256  10.410  0.0000  0.0000  0.0000
 3133SOL    HW122146   0.397   3.212  10.354  0.0000  0.0000  0.0000
 3133SOL    HW222147   0.407   3.302  10.475  0.0000  0.0000  0.0000
 3133SOL     MW22148   0.445   3.257  10.411  0.0000  0.0000  0.0000
 3134SOL     OW22149   2.888   6.391  10.093  0.0000  0.0000  0.0000
 3134SOL    HW122150   2.864   6.480  10.119  0.0000  0.0000  0.0000
 3134SOL    HW222151   2.973   6.377  10.133  0.0000  0.0000  0.0000
 3134SOL     MW22152   2.896   6.401  10.102  0.0000  0.0000  0.0000
 3135SOL     OW22153   3.054   4.278  10.371  0.0000  0.0000  0.0000
 3135SOL    HW122154   3.149   4.289  10.369  0.0000  0.0000  0.0000
 3135SOL    HW222155   3.025   4.315  10.287  0.0000  0.0000  0.0000
 3135SOL     MW22156   3.063   4.285  10.360  0.0000  0.0000  0.0000
 3136SOL     OW22157   0.306   3.479  14.330  0.0000  0.0000  0.0000
 3136SOL    HW122158   0.366   3.433  14.272  0.0000  0.0000  0.0000
 3136SOL    HW222159   0.281   3.414  14.395  0.0000  0.0000  0.0000
 3136SOL     MW22160   0.310   3.465  14.331  0.0000  0.0000  0.0000
 3137SOL     OW22161   0.354   6.430  10.113  0.0000  0.0000  0.0000
 3137SOL    HW122162   0.287   6.480  10.066  0.0000  0.0000  0.0000
 3137SOL    HW222163   0.305   6.375  10.173  0.0000  0.0000  0.0000
 3137SOL     MW22164   0.339   6.430  10.115  0.0000  0.0000  0.0000
 3138SOL     OW22165   2.689   6.359  13.718  0.0000  0.0000  0.0000
 3138SOL    HW122166   2.660   6.440  13.761  0.0000  0.0000  0.0000
 3138SOL    HW222167   2.664   6.289  13.779  0.0000  0.0000  0.0000
 3138SOL     MW22168   2.682   6.361  13.732  0.0000  0.0000  0.0000
 3139SOL     OW22169   4.483   4.946   9.829  0.0000  0.0000  0.0000
 3139SOL    HW122170   4.496   5.018   9.891  0.0000  0.0000  0.0000
 3139SOL    HW222171   4.569   4.929   9.792  0.0000  0.0000  0.0000
 3139SOL     MW22172   4.496   4.953   9.832  0.0000  0.0000  0.0000
 3140SOL     OW22173   3.027   3.800  10.193  0.0000  0.0000  0.0000
 3140SOL    HW122174   3.091   3.747  10.241  0.0000  0.0000  0.0000
 3140SOL    HW222175   3.042   3.889  10.223  0.0000  0.0000  0.0000
 3140SOL     MW22176   3.037   3.805  10.203  0.0000  0.0000  0.0000
 3141SOL     OW22177   0.113   5.014  11.116  0.0000  0.0000  0.0000
 3141SOL    HW122178   0.157   5.071  11.178  0.0000  0.0000  0.0000
 3141SOL    HW222179   0.154   5.033  11.031  0.0000  0.0000  0.0000
 3141SOL     MW22180   0.124   5.024  11.113  0.0000  0.0000  0.0000
 3142SOL     OW22181   1.196   3.976  10.106  0.0000  0.0000  0.0000
 3142SOL    HW122182   1.110   3.998  10.141  0.0000  0.0000  0.0000
 3142SOL    HW222183   1.227   4.058  10.068  0.0000  0.0000  0.0000
 3142SOL     MW22184   1.189   3.990  10.106  0.0000  0.0000  0.0000
 3143SOL     OW22185   4.351   6.877  14.566  0.0000  0.0000  0.0000
 3143SOL    HW122186   4.348   6.911  14.477  0.0000  0.0000  0.0000
 3143SOL    HW222187   4.343   6.782  14.555  0.0000  0.0000  0.0000
 3143SOL     MW22188   4.349   6.869  14.553  0.0000  0.0000  0.0000
 3144SOL     OW22189   4.407   2.963  13.794  0.0000  0.0000  0.0000
 3144SOL    HW122190   4.421   3.033  13.858  0.0000  0.0000  0.0000
 3144SOL    HW222191   4.494   2.927  13.778  0.0000  0.0000  0.0000
 3144SOL     MW22192   4.420   2.968  13.800  0.0000  0.0000  0.0000
 3145SOL     OW22193   3.631   6.674  11.250  0.0000  0.0000  0.0000
 3145SOL    HW122194   3.626   6.602  11.313  0.0000  0.0000  0.0000
 3145SOL    HW222195   3.724   6.687  11.235  0.0000  0.0000  0.0000
 3145SOL     MW22196   3.643   6.666  11.256  0.0000  0.0000  0.0000
 3146SOL     OW22197   3.009   5.828  13.798  0.0000  0.0000  0.0000
 3146SOL    HW122198   3.074   5.792  13.858  0.0000  0.0000  0.0000
 3146SOL    HW222199   3.054   5.835  13.714  0.0000  0.0000  0.0000
 3146SOL     MW22200   3.024   5.824  13.795  0.0000  0.0000  0.0000
 3147SOL     OW22201   4.137   3.831   9.913  0.0000  0.0000  0.0000
 3147SOL    HW122202   4.076   3.766   9.878  0.0000  0.0000  0.0000
 3147SOL    HW222203   4.083   3.910   9.925  0.0000  0.0000  0.0000
 3147SOL     MW22204   4.122   3.833   9.910  0.0000  0.0000  0.0000
 3148SOL     OW22205   4.654   2.888  10.126  0.0000  0.0000  0.0000
 3148SOL    HW122206   4.702   2.808  10.146  0.0000  0.0000  0.0000
 3148SOL    HW222207   4.578   2.858  10.076  0.0000  0.0000  0.0000
 3148SOL     MW22208   4.650   2.873  10.122  0.0000  0.0000  0.0000
 3149SOL     OW22209   3.710   4.627  10.188  0.0000  0.0000  0.0000
 3149SOL    HW122210   3.763   4.703  10.214  0.0000  0.0000  0.0000
 3149SOL    HW222211   3.775   4.563  10.157  0.0000  0.0000  0.0000
 3149SOL     MW22212   3.726   4.629  10.187  0.0000  0.0000  0.0000
 3150SOL     OW22213   1.960   6.405  10.310  0.0000  0.0000  0.0000
 3150SOL    HW122214   2.039   6.459  10.308  0.0000  0.0000  0.0000
 3150SOL    HW222215   1.918   6.428  10.393  0.0000  0.0000  0.0000
 3150SOL     MW22216   1.965   6.415  10.321  0.0000  0.0000  0.0000
 3151SOL     OW22217   4.223   6.991   9.921  0.0000  0.0000  0.0000
 3151SOL    HW122218   4.234   6.908   9.967  0.0000  0.0000  0.0000
 3151SOL    HW222219   4.142   6.979   9.870  0.0000  0.0000  0.0000
 3151SOL     MW22220   4.214   6.978   9.920  0.0000  0.0000  0.0000
 3152SOL     OW22221   2.357   6.783  14.480  0.0000  0.0000  0.0000
 3152SOL    HW122222   2.366   6.769  14.575  0.0000  0.0000  0.0000
 3152SOL    HW222223   2.383   6.874  14.467  0.0000  0.0000  0.0000
 3152SOL     MW22224   2.362   6.793  14.491  0.0000  0.0000  0.0000
 3153SOL     OW22225   1.149   4.145  12.011  0.0000  0.0000  0.0000
 3153SOL    HW122226   1.069   4.179  11.970  0.0000  0.0000  0.0000
 3153SOL    HW222227   1.211   4.218  12.008  0.0000  0.0000  0.0000
 3153SOL     MW22228   1.147   4.159  12.005  0.0000  0.0000  0.0000
 3154SOL     OW22229   4.140   3.837  11.166  0.0000  0.0000  0.0000
 3154SOL    HW122230   4.208   3.817  11.230  0.0000  0.0000  0.0000
 3154SOL    HW222231   4.188   3.854  11.085  0.0000  0.0000  0.0000
 3154SOL     MW22232   4.155   3.837  11.164  0.0000  0.0000  0.0000
 3155SOL     OW22233   4.020   6.491  13.308  0.0000  0.0000  0.0000
 3155SOL    HW122234   4.015   6.470  13.215  0.0000  0.0000  0.0000
 3155SOL    HW222235   4.107   6.530  13.320  0.0000  0.0000  0.0000
 3155SOL     MW22236   4.031   6.493  13.298  0.0000  0.0000  0.0000
 3156SOL     OW22237   0.802   2.610  13.488  0.0000  0.0000  0.0000
 3156SOL    HW122238   0.707   2.606  13.488  0.0000  0.0000  0.0000
 3156SOL    HW222239   0.824   2.666  13.414  0.0000  0.0000  0.0000
 3156SOL     MW22240   0.793   2.617  13.478  0.0000  0.0000  0.0000
 3157SOL     OW22241   0.267   3.112  10.253  0.0000  0.0000  0.0000
 3157SOL    HW122242   0.322   3.052  10.202  0.0000  0.0000  0.0000
 3157SOL    HW222243   0.193   3.132  10.196  0.0000  0.0000  0.0000
 3157SOL     MW22244   0.265   3.107  10.239  0.0000  0.0000  0.0000
 3158SOL     OW22245   2.803   6.166   9.753  0.0000  0.0000  0.0000
 3158SOL    HW122246   2.836   6.250   9.719  0.0000  0.0000  0.0000
 3158SOL    HW222247   2.776   6.185   9.842  0.0000  0.0000  0.0000
 3158SOL     MW22248   2.804   6.180   9.760  0.0000  0.0000  0.0000
 3159SOL     OW22249   1.243   3.076  10.628  0.0000  0.0000  0.0000
 3159SOL    HW122250   1.280   3.001  10.580  0.0000  0.0000  0.0000
 3159SOL    HW222251   1.183   3.036  10.692  0.0000  0.0000  0.0000
 3159SOL     MW22252   1.240   3.061  10.630  0.0000  0.0000  0.0000
 3160SOL     OW22253   1.723   5.865  14.285  0.0000  0.0000  0.0000
 3160SOL    HW122254   1.734   5.876  14.380  0.0000  0.0000  0.0000
 3160SOL    HW222255   1.703   5.772  14.274  0.0000  0.0000  0.0000
 3160SOL     MW22256   1.722   5.854  14.296  0.0000  0.0000  0.0000
 3161SOL     OW22257   2.144   2.952  11.569  0.0000  0.0000  0.0000
 3161SOL    HW122258   2.056   2.946  11.530  0.0000  0.0000  0.0000
 3161SOL    HW222259   2.198   2.987  11.499  0.0000  0.0000  0.0000
 3161SOL     MW22260   2.139   2.956  11.554  0.0000  0.0000  0.0000
 3162SOL     OW22261   1.069   2.865  13.445  0.0000  0.0000  0.0000
 3162SOL    HW122262   1.156   2.834  13.418  0.0000  0.0000  0.0000
 3162SOL    HW222263   1.008   2.809  13.397  0.0000  0.0000  0.0000
 3162SOL     MW22264   1.073   2.854  13.435  0.0000  0.0000  0.0000
 3163SOL     OW22265   0.648   3.604   9.653  0.0000  0.0000  0.0000
 3163SOL    HW122266   0.624   3.518   9.619  0.0000  0.0000  0.0000
 3163SOL    HW222267   0.740   3.596   9.676  0.0000  0.0000  0.0000
 3163SOL     MW22268   0.657   3.592   9.652  0.0000  0.0000  0.0000
 3164SOL     OW22269   1.813   5.189  14.536  0.0000  0.0000  0.0000
 3164SOL    HW122270   1.720   5.184  14.561  0.0000  0.0000  0.0000
 3164SOL    HW222271   1.848   5.262  14.587  0.0000  0.0000  0.0000
 3164SOL     MW22272   1.805   5.198  14.546  0.0000  0.0000  0.0000
 3165SOL     OW22273   2.603   4.145   9.631  0.0000  0.0000  0.0000
 3165SOL    HW122274   2.678   4.177   9.580  0.0000  0.0000  0.0000
 3165SOL    HW222275   2.626   4.055   9.654  0.0000  0.0000  0.0000
 3165SOL     MW22276   2.616   4.138   9.627  0.0000  0.0000  0.0000
 3166SOL     OW22277   4.157   6.840  14.162  0.0000  0.0000  0.0000
 3166SOL    HW122278   4.156   6.755  14.205  0.0000  0.0000  0.0000
 3166SOL    HW222279   4.229   6.887  14.204  0.0000  0.0000  0.0000
 3166SOL     MW22280   4.166   6.835  14.173  0.0000  0.0000  0.0000
 3167SOL     OW22281   2.429   4.867   9.703  0.0000  0.0000  0.0000
 3167SOL    HW122282   2.390   4.782   9.683  0.0000  0.0000  0.0000
 3167SOL    HW222283   2.516   4.846   9.738  0.0000  0.0000  0.0000
 3167SOL     MW22284   2.436   4.853   9.705  0.0000  0.0000  0.0000
 3168SOL     OW22285   2.041   6.284  13.693  0.0000  0.0000  0.0000
 3168SOL    HW122286   2.110   6.350  13.703  0.0000  0.0000  0.0000
 3168SOL    HW222287   1.993   6.286  13.776  0.0000  0.0000  0.0000
 3168SOL     MW22288   2.044   6.293  13.706  0.0000  0.0000  0.0000
 3169SOL     OW22289   0.037   6.343  14.074  0.0000  0.0000  0.0000
 3169SOL    HW122290   0.098   6.278  14.038  0.0000  0.0000  0.0000
 3169SOL    HW222291   0.080   6.374  14.154  0.0000  0.0000  0.0000
 3169SOL     MW22292   0.051   6.339  14.079  0.0000  0.0000  0.0000
 3170SOL     OW22293   2.169   6.322  10.041  0.0000  0.0000  0.0000
 3170SOL    HW122294   2.108   6.264  10.088  0.0000  0.0000  0.0000
 3170SOL    HW222295   2.112   6.384   9.996  0.0000  0.0000  0.0000
 3170SOL     MW22296   2.153   6.322  10.041  0.0000  0.0000  0.0000
 3171SOL     OW22297   0.548   7.194  14.126  0.0000  0.0000  0.0000
 3171SOL    HW122298   0.546   7.276  14.175  0.0000  0.0000  0.0000
 3171SOL    HW222299   0.572   7.220  14.037  0.0000  0.0000  0.0000
 3171SOL     MW22300   0.551   7.208  14.121  0.0000  0.0000  0.0000
 3172SOL     OW22301   0.778   4.811  10.310  0.0000  0.0000  0.0000
 3172SOL    HW122302   0.694   4.849  10.286  0.0000  0.0000  0.0000
 3172SOL    HW222303   0.798   4.849  10.395  0.0000  0.0000  0.0000
 3172SOL     MW22304   0.769   4.821  10.318  0.0000  0.0000  0.0000
 3173SOL     OW22305   3.258   6.147  14.360  0.0000  0.0000  0.0000
 3173SOL    HW122306   3.170   6.184  14.365  0.0000  0.0000  0.0000
 3173SOL    HW222307   3.276   6.115  14.449  0.0000  0.0000  0.0000
 3173SOL     MW22308   3.249   6.148  14.372  0.0000  0.0000  0.0000
 3174SOL     OW22309   1.199   3.039  11.442  0.0000  0.0000  0.0000
 3174SOL    HW122310   1.232   3.031  11.353  0.0000  0.0000  0.0000
 3174SOL    HW222311   1.278   3.051  11.495  0.0000  0.0000  0.0000
 3174SOL     MW22312   1.214   3.039  11.437  0.0000  0.0000  0.0000
 3175SOL     OW22313   1.568   6.539  14.313  0.0000  0.0000  0.0000
 3175SOL    HW122314   1.486   6.514  14.354  0.0000  0.0000  0.0000
 3175SOL    HW222315   1.626   6.464  14.325  0.0000  0.0000  0.0000
 3175SOL     MW22316   1.565   6.526  14.320  0.0000  0.0000  0.0000
 3176SOL     OW22317   3.021   4.812   9.718  0.0000  0.0000  0.0000
 3176SOL    HW122318   2.961   4.738   9.711  0.0000  0.0000  0.0000
 3176SOL    HW222319   3.069   4.812   9.635  0.0000  0.0000  0.0000
 3176SOL     MW22320   3.019   4.802   9.706  0.0000  0.0000  0.0000
 3177SOL     OW22321   0.221   6.682  13.381  0.0000  0.0000  0.0000
 3177SOL    HW122322   0.224   6.758  13.322  0.0000  0.0000  0.0000
 3177SOL    HW222323   0.283   6.620  13.343  0.0000  0.0000  0.0000
 3177SOL     MW22324   0.230   6.684  13.368  0.0000  0.0000  0.0000
 3178SOL     OW22325   1.025   6.667   9.766  0.0000  0.0000  0.0000
 3178SOL    HW122326   0.976   6.703   9.692  0.0000  0.0000  0.0000
 3178SOL    HW222327   0.962   6.611   9.812  0.0000  0.0000  0.0000
 3178SOL     MW22328   1.010   6.664   9.762  0.0000  0.0000  0.0000
 3179SOL     OW22329   2.978   6.355  10.492  0.0000  0.0000  0.0000
 3179SOL    HW122330   2.895   6.343  10.445  0.0000  0.0000  0.0000
 3179SOL    HW222331   3.033   6.404  10.431  0.0000  0.0000  0.0000
 3179SOL     MW22332   2.974   6.360  10.477  0.0000  0.0000  0.0000
 3180SOL     OW22333   1.259   4.844   9.878  0.0000  0.0000  0.0000
 3180SOL    HW122334   1.325   4.802   9.823  0.0000  0.0000  0.0000
 3180SOL    HW222335   1.179   4.843   9.826  0.0000  0.0000  0.0000
 3180SOL     MW22336   1.257   4.838   9.864  0.0000  0.0000  0.0000
 3181SOL     OW22337   2.221   5.813  13.651  0.0000  0.0000  0.0000
 3181SOL    HW122338   2.149   5.783  13.708  0.0000  0.0000  0.0000
 3181SOL    HW222339   2.204   5.906  13.637  0.0000  0.0000  0.0000
 3181SOL     MW22340   2.209   5.821  13.657  0.0000  0.0000  0.0000
 3182SOL     OW22341   1.068   6.639  14.302  0.0000  0.0000  0.0000
 3182SOL    HW122342   1.092   6.569  14.362  0.0000  0.0000  0.0000
 3182SOL    HW222343   1.131   6.708  14.319  0.0000  0.0000  0.0000
 3182SOL     MW22344   1.079   6.639  14.312  0.0000  0.0000  0.0000
 3183SOL     OW22345   0.263   5.292  14.427  0.0000  0.0000  0.0000
 3183SOL    HW122346   0.352   5.275  14.397  0.0000  0.0000  0.0000
 3183SOL    HW222347   0.246   5.383  14.401  0.0000  0.0000  0.0000
 3183SOL     MW22348   0.272   5.302  14.419  0.0000  0.0000  0.0000
 3184SOL     OW22349   1.996   6.500  14.380  0.0000  0.0000  0.0000
 3184SOL    HW122350   2.053   6.574  14.359  0.0000  0.0000  0.0000
 3184SOL    HW222351   1.921   6.539  14.425  0.0000  0.0000  0.0000
 3184SOL     MW22352   1.994   6.515  14.383  0.0000  0.0000  0.0000
 3185SOL     OW22353   1.143   4.535  12.191  0.0000  0.0000  0.0000
 3185SOL    HW122354   1.162   4.608  12.249  0.0000  0.0000  0.0000
 3185SOL    HW222355   1.139   4.458  12.249  0.0000  0.0000  0.0000
 3185SOL     MW22356   1.145   4.534  12.206  0.0000  0.0000  0.0000
 3186SOL     OW22357   3.962   5.577   9.775  0.0000  0.0000  0.0000
 3186SOL    HW122358   3.973   5.594   9.868  0.0000  0.0000  0.0000
 3186SOL    HW222359   4.015   5.644   9.732  0.0000  0.0000  0.0000
 3186SOL     MW22360   3.970   5.588   9.781  0.0000  0.0000  0.0000
 3187SOL     OW22361   1.489   6.803  14.204  0.0000  0.0000  0.0000
 3187SOL    HW122362   1.489   6.718  14.247  0.0000  0.0000  0.0000
 3187SOL    HW222363   1.426   6.855  14.255  0.0000  0.0000  0.0000
 3187SOL     MW22364   1.480   6.799  14.217  0.0000  0.0000  0.0000
 3188SOL     OW22365   0.848   5.861   9.903  0.0000  0.0000  0.0000
 3188SOL    HW122366   0.902   5.938   9.922  0.0000  0.0000  0.0000
 3188SOL    HW222367   0.910   5.796   9.870  0.0000  0.0000  0.0000
 3188SOL     MW22368   0.863   5.862   9.901  0.0000  0.0000  0.0000
 3189SOL     OW22369   4.051   5.991  14.532  0.0000  0.0000  0.0000
 3189SOL    HW122370   4.126   5.981  14.473  0.0000  0.0000  0.0000
 3189SOL    HW222371   4.032   6.085  14.530  0.0000  0.0000  0.0000
 3189SOL     MW22372   4.059   6.002  14.524  0.0000  0.0000  0.0000
 3190SOL     OW22373   0.915   3.688   9.714  0.0000  0.0000  0.0000
 3190SOL    HW122374   0.866   3.757   9.758  0.0000  0.0000  0.0000
 3190SOL    HW222375   0.982   3.661   9.777  0.0000  0.0000  0.0000
 3190SOL     MW22376   0.917   3.693   9.728  0.0000  0.0000  0.0000
 3191SOL     OW22377   2.564   2.712  10.627  0.0000  0.0000  0.0000
 3191SOL    HW122378   2.515   2.726  10.546  0.0000  0.0000  0.0000
 3191SOL    HW222379   2.501   2.732  10.696  0.0000  0.0000  0.0000
 3191SOL     MW22380   2.549   2.716  10.625  0.0000  0.0000  0.0000
 3192SOL     OW22381   1.398   2.937  10.294  0.0000  0.0000  0.0000
 3192SOL    HW122382   1.420   2.868  10.231  0.0000  0.0000  0.0000
 3192SOL    HW222383   1.463   3.005  10.278  0.0000  0.0000  0.0000
 3192SOL     MW22384   1.410   2.937  10.283  0.0000  0.0000  0.0000
 3193SOL     OW22385   3.236   3.634  10.211  0.0000  0.0000  0.0000
 3193SOL    HW122386   3.329   3.618  10.225  0.0000  0.0000  0.0000
 3193SOL    HW222387   3.225   3.630  10.116  0.0000  0.0000  0.0000
 3193SOL     MW22388   3.247   3.631  10.200  0.0000  0.0000  0.0000
 3194SOL     OW22389   1.891   2.870  11.473  0.0000  0.0000  0.0000
 3194SOL    HW122390   1.804   2.881  11.512  0.0000  0.0000  0.0000
 3194SOL    HW222391   1.875   2.819  11.393  0.0000  0.0000  0.0000
 3194SOL     MW22392   1.877   2.865  11.468  0.0000  0.0000  0.0000
 3195SOL     OW22393   4.638   6.951  14.159  0.0000  0.0000  0.0000
 3195SOL    HW122394   4.728   6.921  14.173  0.0000  0.0000  0.0000
 3195SOL    HW222395   4.635   6.978  14.067  0.0000  0.0000  0.0000
 3195SOL     MW22396   4.649   6.951  14.148  0.0000  0.0000  0.0000
 3196SOL     OW22397   0.304   5.892  12.665  0.0000  0.0000  0.0000
 3196SOL    HW122398   0.346   5.811  12.638  0.0000  0.0000  0.0000
 3196SOL    HW222399   0.354   5.921  12.741  0.0000  0.0000  0.0000
 3196SOL     MW22400   0.316   5.886  12.672  0.0000  0.0000  0.0000
 3197SOL     OW22401   3.277   5.187  14.458  0.0000  0.0000  0.0000
 3197SOL    HW122402   3.315   5.138  14.385  0.0000  0.0000  0.0000
 3197SOL    HW222403   3.185   5.160  14.461  0.0000  0.0000  0.0000
 3197SOL     MW22404   3.270   5.177  14.449  0.0000  0.0000  0.0000
 3198SOL     OW22405   3.454   3.444  14.477  0.0000  0.0000  0.0000
 3198SOL    HW122406   3.533   3.432  14.529  0.0000  0.0000  0.0000
 3198SOL    HW222407   3.453   3.538  14.457  0.0000  0.0000  0.0000
 3198SOL     MW22408   3.464   3.455  14.481  0.0000  0.0000  0.0000
 3199SOL     OW22409   4.202   3.482   9.899  0.0000  0.0000  0.0000
 3199SOL    HW122410   4.281   3.504   9.848  0.0000  0.0000  0.0000
 3199SOL    HW222411   4.202   3.545   9.970  0.0000  0.0000  0.0000
 3199SOL     MW22412   4.213   3.493   9.901  0.0000  0.0000  0.0000
 3200SOL     OW22413   1.124   6.278   9.653  0.0000  0.0000  0.0000
 3200SOL    HW122414   1.183   6.257   9.580  0.0000  0.0000  0.0000
 3200SOL    HW222415   1.177   6.332   9.712  0.0000  0.0000  0.0000
 3200SOL     MW22416   1.139   6.282   9.651  0.0000  0.0000  0.0000
 3201SOL     OW22417   3.461   5.522  11.014  0.0000  0.0000  0.0000
 3201SOL    HW122418   3.429   5.581  10.945  0.0000  0.0000  0.0000
 3201SOL    HW222419   3.555   5.537  11.016  0.0000  0.0000  0.0000
 3201SOL     MW22420   3.469   5.532  11.005  0.0000  0.0000  0.0000
 3202SOL     OW22421   1.070   6.130  14.193  0.0000  0.0000  0.0000
 3202SOL    HW122422   0.983   6.113  14.228  0.0000  0.0000  0.0000
 3202SOL    HW222423   1.072   6.224  14.178  0.0000  0.0000  0.0000
 3202SOL     MW22424   1.059   6.140  14.195  0.0000  0.0000  0.0000
 3203SOL     OW22425   4.423   5.151   9.985  0.0000  0.0000  0.0000
 3203SOL    HW122426   4.335   5.127   9.957  0.0000  0.0000  0.0000
 3203SOL    HW222427   4.442   5.092  10.057  0.0000  0.0000  0.0000
 3203SOL     MW22428   4.414   5.140   9.991  0.0000  0.0000  0.0000
 3204SOL     OW22429   2.699   7.115   9.598  0.0000  0.0000  0.0000
 3204SOL    HW122430   2.663   7.183   9.655  0.0000  0.0000  0.0000
 3204SOL    HW222431   2.639   7.041   9.609  0.0000  0.0000  0.0000
 3204SOL     MW22432   2.686   7.114   9.607  0.0000  0.0000  0.0000
 3205SOL     OW22433   2.814   3.582   9.788  0.0000  0.0000  0.0000
 3205SOL    HW122434   2.737   3.525   9.790  0.0000  0.0000  0.0000
 3205SOL    HW222435   2.833   3.600   9.880  0.0000  0.0000  0.0000
 3205SOL     MW22436   2.806   3.577   9.800  0.0000  0.0000  0.0000
 3206SOL     OW22437   0.407   2.903  10.106  0.0000  0.0000  0.0000
 3206SOL    HW122438   0.378   2.838  10.171  0.0000  0.0000  0.0000
 3206SOL    HW222439   0.500   2.884  10.094  0.0000  0.0000  0.0000
 3206SOL     MW22440   0.416   2.892  10.113  0.0000  0.0000  0.0000
 3207SOL     OW22441   4.213   5.918  14.298  0.0000  0.0000  0.0000
 3207SOL    HW122442   4.211   5.823  14.285  0.0000  0.0000  0.0000
 3207SOL    HW222443   4.126   5.947  14.270  0.0000  0.0000  0.0000
 3207SOL     MW22444   4.201   5.909  14.293  0.0000  0.0000  0.0000
 3208SOL     OW22445   0.450   5.100   9.605  0.0000  0.0000  0.0000
 3208SOL    HW122446   0.545   5.099   9.607  0.0000  0.0000  0.0000
 3208SOL    HW222447   0.425   5.008   9.609  0.0000  0.0000  0.0000
 3208SOL     MW22448   0.459   5.088   9.606  0.0000  0.0000  0.0000
 3209SOL     OW22449   3.975   2.603   9.714  0.0000  0.0000  0.0000
 3209SOL    HW122450   3.903   2.643   9.665  0.0000  0.0000  0.0000
 3209SOL    HW222451   3.977   2.651   9.797  0.0000  0.0000  0.0000
 3209SOL     MW22452   3.966   2.615   9.718  0.0000  0.0000  0.0000
 3210SOL     OW22453   4.509   2.863  13.182  0.0000  0.0000  0.0000
 3210SOL    HW122454   4.550   2.804  13.118  0.0000  0.0000  0.0000
 3210SOL    HW222455   4.473   2.805  13.248  0.0000  0.0000  0.0000
 3210SOL     MW22456   4.510   2.848  13.182  0.0000  0.0000  0.0000
 3211SOL     OW22457   4.580   4.756  12.275  0.0000  0.0000  0.0000
 3211SOL    HW122458   4.542   4.704  12.345  0.0000  0.0000  0.0000
 3211SOL    HW222459   4.510   4.817  12.250  0.0000  0.0000  0.0000
 3211SOL     MW22460   4.566   4.757  12.281  0.0000  0.0000  0.0000
 3212SOL     OW22461   2.329   5.861   9.750  0.0000  0.0000  0.0000
 3212SOL    HW122462   2.268   5.808   9.801  0.0000  0.0000  0.0000
 3212SOL    HW222463   2.307   5.951   9.772  0.0000  0.0000  0.0000
 3212SOL     MW22464   2.318   5.866   9.760  0.0000  0.0000  0.0000
 3213SOL     OW22465   1.486   7.082  14.301  0.0000  0.0000  0.0000
 3213SOL    HW122466   1.545   7.097  14.226  0.0000  0.0000  0.0000
 3213SOL    HW222467   1.411   7.139  14.284  0.0000  0.0000  0.0000
 3213SOL     MW22468   1.484   7.091  14.289  0.0000  0.0000  0.0000
 3214SOL     OW22469   4.570   6.313  14.328  0.0000  0.0000  0.0000
 3214SOL    HW122470   4.588   6.286  14.237  0.0000  0.0000  0.0000
 3214SOL    HW222471   4.527   6.398  14.319  0.0000  0.0000  0.0000
 3214SOL     MW22472   4.567   6.321  14.315  0.0000  0.0000  0.0000
 3215SOL     OW22473   1.946   3.611  11.441  0.0000  0.0000  0.0000
 3215SOL    HW122474   1.883   3.622  11.369  0.0000  0.0000  0.0000
 3215SOL    HW222475   1.891   3.598  11.519  0.0000  0.0000  0.0000
 3215SOL     MW22476   1.930   3.611  11.442  0.0000  0.0000  0.0000
 3216SOL     OW22477   2.153   5.423   9.597  0.0000  0.0000  0.0000
 3216SOL    HW122478   2.133   5.418   9.690  0.0000  0.0000  0.0000
 3216SOL    HW222479   2.149   5.516   9.576  0.0000  0.0000  0.0000
 3216SOL     MW22480   2.150   5.435   9.606  0.0000  0.0000  0.0000
 3217SOL     OW22481   1.157   3.873  14.174  0.0000  0.0000  0.0000
 3217SOL    HW122482   1.102   3.895  14.100  0.0000  0.0000  0.0000
 3217SOL    HW222483   1.100   3.824  14.233  0.0000  0.0000  0.0000
 3217SOL     MW22484   1.142   3.869  14.172  0.0000  0.0000  0.0000
 3218SOL     OW22485   2.952   5.839   9.925  0.0000  0.0000  0.0000
 3218SOL    HW122486   3.032   5.788   9.939  0.0000  0.0000  0.0000
 3218SOL    HW222487   2.983   5.929   9.912  0.0000  0.0000  0.0000
 3218SOL     MW22488   2.966   5.844   9.925  0.0000  0.0000  0.0000
 3219SOL     OW22489   0.465   3.420  13.871  0.0000  0.0000  0.0000
 3219SOL    HW122490   0.507   3.346  13.914  0.0000  0.0000  0.0000
 3219SOL    HW222491   0.482   3.494  13.929  0.0000  0.0000  0.0000
 3219SOL     MW22492   0.473   3.420  13.884  0.0000  0.0000  0.0000
 3220SOL     OW22493   3.699   6.600  14.521  0.0000  0.0000  0.0000
 3220SOL    HW122494   3.743   6.567  14.443  0.0000  0.0000  0.0000
 3220SOL    HW222495   3.770   6.629  14.579  0.0000  0.0000  0.0000
 3220SOL     MW22496   3.714   6.600  14.519  0.0000  0.0000  0.0000
 3221SOL     OW22497   0.656   4.066  14.267  0.0000  0.0000  0.0000
 3221SOL    HW122498   0.653   4.087  14.361  0.0000  0.0000  0.0000
 3221SOL    HW222499   0.582   4.007  14.253  0.0000  0.0000  0.0000
 3221SOL     MW22500   0.646   4.061  14.278  0.0000  0.0000  0.0000
 3222SOL     OW22501   4.039   3.325   9.696  0.0000  0.0000  0.0000
 3222SOL    HW122502   4.075   3.237   9.687  0.0000  0.0000  0.0000
 3222SOL    HW222503   4.081   3.359   9.775  0.0000  0.0000  0.0000
 3222SOL     MW22504   4.050   3.318   9.705  0.0000  0.0000  0.0000
 3223SOL     OW22505   0.138   6.536   9.981  0.0000  0.0000  0.0000
 3223SOL    HW122506   0.122   6.483   9.902  0.0000  0.0000  0.0000
 3223SOL    HW222507   0.168   6.620   9.947  0.0000  0.0000  0.0000
 3223SOL     MW22508   0.140   6.540   9.966  0.0000  0.0000  0.0000
 3224SOL     OW22509   0.310   2.898  13.590  0.0000  0.0000  0.0000
 3224SOL    HW122510   0.250   2.861  13.526  0.0000  0.0000  0.0000
 3224SOL    HW222511   0.390   2.914  13.542  0.0000  0.0000  0.0000
 3224SOL     MW22512   0.312   2.895  13.575  0.0000  0.0000  0.0000
 3225SOL     OW22513   2.570   6.675  13.626  0.0000  0.0000  0.0000
 3225SOL    HW122514   2.502   6.608  13.614  0.0000  0.0000  0.0000
 3225SOL    HW222515   2.612   6.652  13.709  0.0000  0.0000  0.0000
 3225SOL     MW22516   2.567   6.663  13.635  0.0000  0.0000  0.0000
 3226SOL     OW22517   1.675   4.373  14.086  0.0000  0.0000  0.0000
 3226SOL    HW122518   1.681   4.449  14.145  0.0000  0.0000  0.0000
 3226SOL    HW222519   1.618   4.403  14.016  0.0000  0.0000  0.0000
 3226SOL     MW22520   1.668   4.387  14.085  0.0000  0.0000  0.0000
 3227SOL     OW22521   3.816   4.858  10.308  0.0000  0.0000  0.0000
 3227SOL    HW122522   3.752   4.829  10.373  0.0000  0.0000  0.0000
 3227SOL    HW222523   3.776   4.937  10.270  0.0000  0.0000  0.0000
 3227SOL     MW22524   3.802   4.865  10.311  0.0000  0.0000  0.0000
 3228SOL     OW22525   1.271   5.236  14.142  0.0000  0.0000  0.0000
 3228SOL    HW122526   1.338   5.222  14.209  0.0000  0.0000  0.0000
 3228SOL    HW222527   1.312   5.204  14.061  0.0000  0.0000  0.0000
 3228SOL     MW22528   1.286   5.230  14.140  0.0000  0.0000  0.0000
 3229SOL     OW22529   1.326   3.675  10.630  0.0000  0.0000  0.0000
 3229SOL    HW122530   1.296   3.723  10.553  0.0000  0.0000  0.0000
 3229SOL    HW222531   1.418   3.697  10.639  0.0000  0.0000  0.0000
 3229SOL     MW22532   1.334   3.684  10.621  0.0000  0.0000  0.0000
 3230SOL     OW22533   2.278   4.846  14.229  0.0000  0.0000  0.0000
 3230SOL    HW122534   2.254   4.918  14.170  0.0000  0.0000  0.0000
 3230SOL    HW222535   2.370   4.860  14.250  0.0000  0.0000  0.0000
 3230SOL     MW22536   2.287   4.857  14.224  0.0000  0.0000  0.0000
 3231SOL     OW22537   1.406   4.578  14.325  0.0000  0.0000  0.0000
 3231SOL    HW122538   1.368   4.501  14.368  0.0000  0.0000  0.0000
 3231SOL    HW222539   1.333   4.640  14.318  0.0000  0.0000  0.0000
 3231SOL     MW22540   1.391   4.576  14.330  0.0000  0.0000  0.0000
 3232SOL     OW22541   0.684   4.316  10.226  0.0000  0.0000  0.0000
 3232SOL    HW122542   0.671   4.411  10.216  0.0000  0.0000  0.0000
 3232SOL    HW222543   0.615   4.277  10.172  0.0000  0.0000  0.0000
 3232SOL     MW22544   0.673   4.324  10.217  0.0000  0.0000  0.0000
 3233SOL     OW22545   0.241   5.168  11.279  0.0000  0.0000  0.0000
 3233SOL    HW122546   0.217   5.260  11.266  0.0000  0.0000  0.0000
 3233SOL    HW222547   0.210   5.148  11.368  0.0000  0.0000  0.0000
 3233SOL     MW22548   0.234   5.178  11.289  0.0000  0.0000  0.0000
 3234SOL     OW22549   4.074   2.759  13.922  0.0000  0.0000  0.0000
 3234SOL    HW122550   4.122   2.812  13.985  0.0000  0.0000  0.0000
 3234SOL    HW222551   4.060   2.675  13.967  0.0000  0.0000  0.0000
 3234SOL     MW22552   4.078   2.755  13.936  0.0000  0.0000  0.0000
 3235SOL     OW22553   4.357   6.114  13.867  0.0000  0.0000  0.0000
 3235SOL    HW122554   4.377   6.203  13.840  0.0000  0.0000  0.0000
 3235SOL    HW222555   4.267   6.099  13.838  0.0000  0.0000  0.0000
 3235SOL     MW22556   4.348   6.124  13.860  0.0000  0.0000  0.0000
 3236SOL     OW22557   3.976   6.972   9.786  0.0000  0.0000  0.0000
 3236SOL    HW122558   3.926   6.913   9.731  0.0000  0.0000  0.0000
 3236SOL    HW222559   3.956   7.059   9.752  0.0000  0.0000  0.0000
 3236SOL     MW22560   3.967   6.976   9.774  0.0000  0.0000  0.0000
 3237SOL     OW22561   0.789   6.275  13.526  0.0000  0.0000  0.0000
 3237SOL    HW122562   0.761   6.271  13.435  0.0000  0.0000  0.0000
 3237SOL    HW222563   0.815   6.185  13.547  0.0000  0.0000  0.0000
 3237SOL     MW22564   0.789   6.262  13.517  0.0000  0.0000  0.0000
 3238SOL     OW22565   0.748   2.983  14.316  0.0000  0.0000  0.0000
 3238SOL    HW122566   0.660   2.948  14.302  0.0000  0.0000  0.0000
 3238SOL    HW222567   0.743   3.073  14.284  0.0000  0.0000  0.0000
 3238SOL     MW22568   0.736   2.991  14.310  0.0000  0.0000  0.0000
 3239SOL     OW22569   0.413   6.141  14.212  0.0000  0.0000  0.0000
 3239SOL    HW122570   0.319   6.124  14.211  0.0000  0.0000  0.0000
 3239SOL    HW222571   0.421   6.235  14.194  0.0000  0.0000  0.0000
 3239SOL     MW22572   0.402   6.152  14.209  0.0000  0.0000  0.0000
 3240SOL     OW22573   4.432   3.466  10.116  0.0000  0.0000  0.0000
 3240SOL    HW122574   4.398   3.556  10.114  0.0000  0.0000  0.0000
 3240SOL    HW222575   4.399   3.430  10.198  0.0000  0.0000  0.0000
 3240SOL     MW22576   4.423   3.473  10.127  0.0000  0.0000  0.0000
 3241SOL     OW22577   2.971   5.905  10.646  0.0000  0.0000  0.0000
 3241SOL    HW122578   2.928   5.893  10.562  0.0000  0.0000  0.0000
 3241SOL    HW222579   2.962   5.999  10.665  0.0000  0.0000  0.0000
 3241SOL     MW22580   2.964   5.916  10.637  0.0000  0.0000  0.0000
 3242SOL     OW22581   2.593   5.788   9.764  0.0000  0.0000  0.0000
 3242SOL    HW122582   2.500   5.808   9.764  0.0000  0.0000  0.0000
 3242SOL    HW222583   2.622   5.810   9.853  0.0000  0.0000  0.0000
 3242SOL     MW22584   2.585   5.794   9.776  0.0000  0.0000  0.0000
 3243SOL     OW22585   3.035   3.001   9.935  0.0000  0.0000  0.0000
 3243SOL    HW122586   3.076   2.980  10.019  0.0000  0.0000  0.0000
 3243SOL    HW222587   3.076   2.941   9.873  0.0000  0.0000  0.0000
 3243SOL     MW22588   3.046   2.990   9.938  0.0000  0.0000  0.0000
 3244SOL     OW22589   3.617   7.187  14.275  0.0000  0.0000  0.0000
 3244SOL    HW122590   3.586   7.100  14.249  0.0000  0.0000  0.0000
 3244SOL    HW222591   3.553   7.217  14.340  0.0000  0.0000  0.0000
 3244SOL     MW22592   3.604   7.179  14.280  0.0000  0.0000  0.0000
 3245SOL     OW22593   0.826   4.941  10.548  0.0000  0.0000  0.0000
 3245SOL    HW122594   0.905   4.989  10.571  0.0000  0.0000  0.0000
 3245SOL    HW222595   0.754   4.995  10.581  0.0000  0.0000  0.0000
 3245SOL     MW22596   0.827   4.954  10.556  0.0000  0.0000  0.0000
 3246SOL     OW22597   4.359   5.471  13.289  0.0000  0.0000  0.0000
 3246SOL    HW122598   4.331   5.470  13.198  0.0000  0.0000  0.0000
 3246SOL    HW222599   4.447   5.433  13.288  0.0000  0.0000  0.0000
 3246SOL     MW22600   4.367   5.466  13.277  0.0000  0.0000  0.0000
 3247SOL     OW22601   1.320   6.481  12.039  0.0000  0.0000  0.0000
 3247SOL    HW122602   1.286   6.519  11.959  0.0000  0.0000  0.0000
 3247SOL    HW222603   1.300   6.545  12.107  0.0000  0.0000  0.0000
 3247SOL     MW22604   1.313   6.494  12.038  0.0000  0.0000  0.0000
 3248SOL     OW22605   2.658   4.387   9.769  0.0000  0.0000  0.0000
 3248SOL    HW122606   2.663   4.301   9.728  0.0000  0.0000  0.0000
 3248SOL    HW222607   2.720   4.382   9.842  0.0000  0.0000  0.0000
 3248SOL     MW22608   2.667   4.375   9.773  0.0000  0.0000  0.0000
 3249SOL     OW22609   0.598   4.987  12.466  0.0000  0.0000  0.0000
 3249SOL    HW122610   0.590   4.956  12.557  0.0000  0.0000  0.0000
 3249SOL    HW222611   0.513   5.027  12.448  0.0000  0.0000  0.0000
 3249SOL     MW22612   0.586   4.988  12.476  0.0000  0.0000  0.0000
 3250SOL     OW22613   2.319   6.739  13.225  0.0000  0.0000  0.0000
 3250SOL    HW122614   2.354   6.806  13.166  0.0000  0.0000  0.0000
 3250SOL    HW222615   2.228   6.728  13.199  0.0000  0.0000  0.0000
 3250SOL     MW22616   2.312   6.746  13.214  0.0000  0.0000  0.0000
 3251SOL     OW22617   3.825   7.014  14.039  0.0000  0.0000  0.0000
 3251SOL    HW122618   3.828   6.956  13.963  0.0000  0.0000  0.0000
 3251SOL    HW222619   3.907   7.064  14.034  0.0000  0.0000  0.0000
 3251SOL     MW22620   3.836   7.013  14.028  0.0000  0.0000  0.0000
 3252SOL     OW22621   1.916   2.799  13.569  0.0000  0.0000  0.0000
 3252SOL    HW122622   1.872   2.728  13.616  0.0000  0.0000  0.0000
 3252SOL    HW222623   1.862   2.813  13.491  0.0000  0.0000  0.0000
 3252SOL     MW22624   1.903   2.792  13.565  0.0000  0.0000  0.0000
 3253SOL     OW22625   4.076   6.246  11.203  0.0000  0.0000  0.0000
 3253SOL    HW122626   4.071   6.330  11.249  0.0000  0.0000  0.0000
 3253SOL    HW222627   4.024   6.186  11.257  0.0000  0.0000  0.0000
 3253SOL     MW22628   4.069   6.249  11.216  0.0000  0.0000  0.0000
 3254SOL     OW22629   4.165   5.066   9.897  0.0000  0.0000  0.0000
 3254SOL    HW122630   4.078   5.089   9.929  0.0000  0.0000  0.0000
 3254SOL    HW222631   4.164   5.089   9.804  0.0000  0.0000  0.0000
 3254SOL     MW22632   4.153   5.072   9.889  0.0000  0.0000  0.0000
 3255SOL     OW22633   3.715   3.328  11.334  0.0000  0.0000  0.0000
 3255SOL    HW122634   3.790   3.384  11.356  0.0000  0.0000  0.0000
 3255SOL    HW222635   3.664   3.323  11.416  0.0000  0.0000  0.0000
 3255SOL     MW22636   3.718   3.335  11.348  0.0000  0.0000  0.0000
 3256SOL     OW22637   2.477   2.723  14.230  0.0000  0.0000  0.0000
 3256SOL    HW122638   2.506   2.814  14.221  0.0000  0.0000  0.0000
 3256SOL    HW222639   2.556   2.675  14.254  0.0000  0.0000  0.0000
 3256SOL     MW22640   2.491   2.729  14.232  0.0000  0.0000  0.0000
 3257SOL     OW22641   2.764   6.618  10.218  0.0000  0.0000  0.0000
 3257SOL    HW122642   2.676   6.596  10.188  0.0000  0.0000  0.0000
 3257SOL    HW222643   2.758   6.711  10.242  0.0000  0.0000  0.0000
 3257SOL     MW22644   2.751   6.628  10.218  0.0000  0.0000  0.0000
 3258SOL     OW22645   0.473   6.404  14.244  0.0000  0.0000  0.0000
 3258SOL    HW122646   0.425   6.482  14.216  0.0000  0.0000  0.0000
 3258SOL    HW222647   0.565   6.428  14.234  0.0000  0.0000  0.0000
 3258SOL     MW22648   0.478   6.418  14.239  0.0000  0.0000  0.0000
 3259SOL     OW22649   3.397   6.751  11.441  0.0000  0.0000  0.0000
 3259SOL    HW122650   3.440   6.683  11.493  0.0000  0.0000  0.0000
 3259SOL    HW222651   3.455   6.763  11.365  0.0000  0.0000  0.0000
 3259SOL     MW22652   3.411   6.744  11.438  0.0000  0.0000  0.0000
 3260SOL     OW22653   0.740   6.475  14.205  0.0000  0.0000  0.0000
 3260SOL    HW122654   0.825   6.452  14.167  0.0000  0.0000  0.0000
 3260SOL    HW222655   0.755   6.561  14.245  0.0000  0.0000  0.0000
 3260SOL     MW22656   0.753   6.484  14.205  0.0000  0.0000  0.0000
 3261SOL     OW22657   1.017   6.401  14.141  0.0000  0.0000  0.0000
 3261SOL    HW122658   1.045   6.489  14.166  0.0000  0.0000  0.0000
 3261SOL    HW222659   1.044   6.392  14.050  0.0000  0.0000  0.0000
 3261SOL     MW22660   1.024   6.411  14.132  0.0000  0.0000  0.0000
 3262SOL     OW22661   4.590   6.743  12.447  0.0000  0.0000  0.0000
 3262SOL    HW122662   4.662   6.690  12.413  0.0000  0.0000  0.0000
 3262SOL    HW222663   4.516   6.684  12.450  0.0000  0.0000  0.0000
 3262SOL     MW22664   4.590   6.728  12.443  0.0000  0.0000  0.0000
 3263SOL     OW22665   1.915   3.225  14.467  0.0000  0.0000  0.0000
 3263SOL    HW122666   1.997   3.257  14.429  0.0000  0.0000  0.0000
 3263SOL    HW222667   1.886   3.156  14.407  0.0000  0.0000  0.0000
 3263SOL     MW22668   1.922   3.220  14.454  0.0000  0.0000  0.0000
 3264SOL     OW22669   2.704   7.026  14.418  0.0000  0.0000  0.0000
 3264SOL    HW122670   2.741   6.939  14.403  0.0000  0.0000  0.0000
 3264SOL    HW222671   2.611   7.015  14.399  0.0000  0.0000  0.0000
 3264SOL     MW22672   2.697   7.013  14.414  0.0000  0.0000  0.0000
 3265SOL     OW22673   0.799   3.831  14.237  0.0000  0.0000  0.0000
 3265SOL    HW122674   0.743   3.760  14.267  0.0000  0.0000  0.0000
 3265SOL    HW222675   0.745   3.910  14.249  0.0000  0.0000  0.0000
 3265SOL     MW22676   0.784   3.832  14.243  0.0000  0.0000  0.0000
 3266SOL     OW22677   4.052   4.798   9.949  0.0000  0.0000  0.0000
 3266SOL    HW122678   4.107   4.866   9.909  0.0000  0.0000  0.0000
 3266SOL    HW222679   4.058   4.724   9.889  0.0000  0.0000  0.0000
 3266SOL     MW22680   4.060   4.797   9.936  0.0000  0.0000  0.0000
 3267SOL     OW22681   2.107   3.467   9.705  0.0000  0.0000  0.0000
 3267SOL    HW122682   2.038   3.413   9.666  0.0000  0.0000  0.0000
 3267SOL    HW222683   2.159   3.496   9.630  0.0000  0.0000  0.0000
 3267SOL     MW22684   2.105   3.464   9.690  0.0000  0.0000  0.0000
 3268SOL     OW22685   1.139   3.226  14.326  0.0000  0.0000  0.0000
 3268SOL    HW122686   1.224   3.268  14.338  0.0000  0.0000  0.0000
 3268SOL    HW222687   1.125   3.176  14.406  0.0000  0.0000  0.0000
 3268SOL     MW22688   1.148   3.225  14.338  0.0000  0.0000  0.0000
 3269SOL     OW22689   1.415   6.154   9.646  0.0000  0.0000  0.0000
 3269SOL    HW122690   1.479   6.087   9.624  0.0000  0.0000  0.0000
 3269SOL    HW222691   1.451   6.199   9.722  0.0000  0.0000  0.0000
 3269SOL     MW22692   1.428   6.151   9.653  0.0000  0.0000  0.0000
 3270SOL     OW22693   4.337   3.801  10.328  0.0000  0.0000  0.0000
 3270SOL    HW122694   4.278   3.877  10.336  0.0000  0.0000  0.0000
 3270SOL    HW222695   4.288   3.729  10.368  0.0000  0.0000  0.0000
 3270SOL     MW22696   4.322   3.802  10.335  0.0000  0.0000  0.0000
 3271SOL     OW22697   0.458   3.297  14.209  0.0000  0.0000  0.0000
 3271SOL    HW122698   0.524   3.259  14.151  0.0000  0.0000  0.0000
 3271SOL    HW222699   0.455   3.237  14.284  0.0000  0.0000  0.0000
 3271SOL     MW22700   0.466   3.284  14.211  0.0000  0.0000  0.0000
 3272SOL     OW22701   1.556   6.654  11.514  0.0000  0.0000  0.0000
 3272SOL    HW122702   1.607   6.733  11.496  0.0000  0.0000  0.0000
 3272SOL    HW222703   1.539   6.656  11.608  0.0000  0.0000  0.0000
 3272SOL     MW22704   1.560   6.664  11.524  0.0000  0.0000  0.0000
 3273SOL     OW22705   1.407   3.065  11.649  0.0000  0.0000  0.0000
 3273SOL    HW122706   1.350   3.108  11.713  0.0000  0.0000  0.0000
 3273SOL    HW222707   1.466   3.133  11.619  0.0000  0.0000  0.0000
 3273SOL     MW22708   1.407   3.080  11.653  0.0000  0.0000  0.0000
 3274SOL     OW22709   2.688   5.088  14.360  0.0000  0.0000  0.0000
 3274SOL    HW122710   2.729   5.048  14.437  0.0000  0.0000  0.0000
 3274SOL    HW222711   2.638   5.016  14.319  0.0000  0.0000  0.0000
 3274SOL     MW22712   2.687   5.073  14.365  0.0000  0.0000  0.0000
 3275SOL     OW22713   0.036   5.478  14.031  0.0000  0.0000  0.0000
 3275SOL    HW122714   0.060   5.523  14.112  0.0000  0.0000  0.0000
 3275SOL    HW222715   0.048   5.544  13.962  0.0000  0.0000  0.0000
 3275SOL     MW22716   0.041   5.493  14.033  0.0000  0.0000  0.0000
 3276SOL     OW22717   0.440   7.090  14.464  0.0000  0.0000  0.0000
 3276SOL    HW122718   0.507   7.028  14.493  0.0000  0.0000  0.0000
 3276SOL    HW222719   0.487   7.173  14.456  0.0000  0.0000  0.0000
 3276SOL     MW22720   0.455   7.093  14.467  0.0000  0.0000  0.0000
 3277SOL     OW22721   3.388   5.253  11.003  0.0000  0.0000  0.0000
 3277SOL    HW122722   3.417   5.336  10.965  0.0000  0.0000  0.0000
 3277SOL    HW222723   3.445   5.239  11.078  0.0000  0.0000  0.0000
 3277SOL     MW22724   3.399   5.262  11.008  0.0000  0.0000  0.0000
 3278SOL     OW22725   3.413   2.696   9.861  0.0000  0.0000  0.0000
 3278SOL    HW122726   3.400   2.620   9.917  0.0000  0.0000  0.0000
 3278SOL    HW222727   3.452   2.661   9.781  0.0000  0.0000  0.0000
 3278SOL     MW22728   3.416   2.681   9.858  0.0000  0.0000  0.0000
 3279SOL     OW22729   3.728   7.189  10.169  0.0000  0.0000  0.0000
 3279SOL    HW122730   3.766   7.114  10.124  0.0000  0.0000  0.0000
 3279SOL    HW222731   3.800   7.227  10.219  0.0000  0.0000  0.0000
 3279SOL     MW22732   3.742   7.184  10.170  0.0000  0.0000  0.0000
 3280SOL     OW22733   0.655   6.913  14.490  0.0000  0.0000  0.0000
 3280SOL    HW122734   0.617   6.833  14.527  0.0000  0.0000  0.0000
 3280SOL    HW222735   0.713   6.946  14.559  0.0000  0.0000  0.0000
 3280SOL     MW22736   0.658   6.907  14.504  0.0000  0.0000  0.0000
 3281SOL     OW22737   0.831   6.122  13.941  0.0000  0.0000  0.0000
 3281SOL    HW122738   0.870   6.057  13.883  0.0000  0.0000  0.0000
 3281SOL    HW222739   0.883   6.118  14.022  0.0000  0.0000  0.0000
 3281SOL     MW22740   0.843   6.113  13.944  0.0000  0.0000  0.0000
 3282SOL     OW22741   1.481   6.215   9.928  0.0000  0.0000  0.0000
 3282SOL    HW122742   1.572   6.196   9.906  0.0000  0.0000  0.0000
 3282SOL    HW222743   1.441   6.128   9.942  0.0000  0.0000  0.0000
 3282SOL     MW22744   1.487   6.201   9.927  0.0000  0.0000  0.0000
 3283SOL     OW22745   1.721   6.287  14.333  0.0000  0.0000  0.0000
 3283SOL    HW122746   1.667   6.218  14.295  0.0000  0.0000  0.0000
 3283SOL    HW222747   1.810   6.265  14.308  0.0000  0.0000  0.0000
 3283SOL     MW22748   1.725   6.275  14.325  0.0000  0.0000  0.0000
 3284SOL     OW22749   0.640   4.757  13.188  0.0000  0.0000  0.0000
 3284SOL    HW122750   0.632   4.825  13.121  0.0000  0.0000  0.0000
 3284SOL    HW222751   0.686   4.799  13.261  0.0000  0.0000  0.0000
 3284SOL     MW22752   0.645   4.771  13.189  0.0000  0.0000  0.0000
 3285SOL     OW22753   0.395   2.705  10.305  0.0000  0.0000  0.0000
 3285SOL    HW122754   0.359   2.721  10.393  0.0000  0.0000  0.0000
 3285SOL    HW222755   0.476   2.657  10.321  0.0000  0.0000  0.0000
 3285SOL     MW22756   0.401   2.701  10.319  0.0000  0.0000  0.0000
 3286SOL     OW22757   3.329   4.946  10.270  0.0000  0.0000  0.0000
 3286SOL    HW122758   3.249   4.998  10.261  0.0000  0.0000  0.0000
 3286SOL    HW222759   3.329   4.889  10.193  0.0000  0.0000  0.0000
 3286SOL     MW22760   3.318   4.946  10.259  0.0000  0.0000  0.0000
 3287SOL     OW22761   3.607   6.888   9.957  0.0000  0.0000  0.0000
 3287SOL    HW122762   3.641   6.800   9.971  0.0000  0.0000  0.0000
 3287SOL    HW222763   3.617   6.904   9.863  0.0000  0.0000  0.0000
 3287SOL     MW22764   3.613   6.879   9.947  0.0000  0.0000  0.0000
 3288SOL     OW22765   3.413   4.801  10.059  0.0000  0.0000  0.0000
 3288SOL    HW122766   3.468   4.728  10.030  0.0000  0.0000  0.0000
 3288SOL    HW222767   3.334   4.793  10.006  0.0000  0.0000  0.0000
 3288SOL     MW22768   3.410   4.790  10.048  0.0000  0.0000  0.0000
 3289SOL     OW22769   4.168   3.583  10.427  0.0000  0.0000  0.0000
 3289SOL    HW122770   4.212   3.573  10.512  0.0000  0.0000  0.0000
 3289SOL    HW222771   4.107   3.655  10.439  0.0000  0.0000  0.0000
 3289SOL     MW22772   4.166   3.591  10.440  0.0000  0.0000  0.0000
 3290SOL     OW22773   3.379   7.094  10.030  0.0000  0.0000  0.0000
 3290SOL    HW122774   3.304   7.036  10.020  0.0000  0.0000  0.0000
 3290SOL    HW222775   3.455   7.038  10.015  0.0000  0.0000  0.0000
 3290SOL     MW22776   3.379   7.079  10.027  0.0000  0.0000  0.0000
 3291SOL     OW22777   2.700   5.218  12.817  0.0000  0.0000  0.0000
 3291SOL    HW122778   2.645   5.142  12.835  0.0000  0.0000  0.0000
 3291SOL    HW222779   2.642   5.280  12.774  0.0000  0.0000  0.0000
 3291SOL     MW22780   2.685   5.216  12.814  0.0000  0.0000  0.0000
 3292SOL     OW22781   2.430   3.155   9.808  0.0000  0.0000  0.0000
 3292SOL    HW122782   2.336   3.166   9.797  0.0000  0.0000  0.0000
 3292SOL    HW222783   2.469   3.203   9.734  0.0000  0.0000  0.0000
 3292SOL     MW22784   2.423   3.163   9.797  0.0000  0.0000  0.0000
 3293SOL     OW22785   2.688   7.132  10.493  0.0000  0.0000  0.0000
 3293SOL    HW122786   2.678   7.190  10.417  0.0000  0.0000  0.0000
 3293SOL    HW222787   2.650   7.181  10.566  0.0000  0.0000  0.0000
 3293SOL     MW22788   2.682   7.146  10.493  0.0000  0.0000  0.0000
 3294SOL     OW22789   3.720   3.207  10.475  0.0000  0.0000  0.0000
 3294SOL    HW122790   3.669   3.194  10.395  0.0000  0.0000  0.0000
 3294SOL    HW222791   3.693   3.135  10.533  0.0000  0.0000  0.0000
 3294SOL     MW22792   3.710   3.196  10.472  0.0000  0.0000  0.0000
 3295SOL     OW22793   0.983   6.070   9.962  0.0000  0.0000  0.0000
 3295SOL    HW122794   1.015   6.103  10.046  0.0000  0.0000  0.0000
 3295SOL    HW222795   1.062   6.056   9.910  0.0000  0.0000  0.0000
 3295SOL     MW22796   0.998   6.073   9.966  0.0000  0.0000  0.0000
 3296SOL     OW22797   3.629   4.659   9.923  0.0000  0.0000  0.0000
 3296SOL    HW122798   3.671   4.744   9.919  0.0000  0.0000  0.0000
 3296SOL    HW222799   3.667   4.617  10.000  0.0000  0.0000  0.0000
 3296SOL     MW22800   3.639   4.665   9.933  0.0000  0.0000  0.0000
 3297SOL     OW22801   2.109   3.896   9.930  0.0000  0.0000  0.0000
 3297SOL    HW122802   2.126   3.851  10.013  0.0000  0.0000  0.0000
 3297SOL    HW222803   2.046   3.840   9.886  0.0000  0.0000  0.0000
 3297SOL     MW22804   2.103   3.883   9.935  0.0000  0.0000  0.0000
 3298SOL     OW22805   3.086   7.042  14.510  0.0000  0.0000  0.0000
 3298SOL    HW122806   3.103   7.112  14.447  0.0000  0.0000  0.0000
 3298SOL    HW222807   3.009   7.072  14.559  0.0000  0.0000  0.0000
 3298SOL     MW22808   3.078   7.055  14.508  0.0000  0.0000  0.0000
 3299SOL     OW22809   1.059   3.346  10.413  0.0000  0.0000  0.0000
 3299SOL    HW122810   1.127   3.370  10.476  0.0000  0.0000  0.0000
 3299SOL    HW222811   1.082   3.257  10.386  0.0000  0.0000  0.0000
 3299SOL     MW22812   1.071   3.337  10.418  0.0000  0.0000  0.0000
 3300SOL     OW22813   2.153   3.213   9.832  0.0000  0.0000  0.0000
 3300SOL    HW122814   2.073   3.173   9.797  0.0000  0.0000  0.0000
 3300SOL    HW222815   2.157   3.300   9.792  0.0000  0.0000  0.0000
 3300SOL     MW22816   2.143   3.219   9.822  0.0000  0.0000  0.0000
 3301SOL     OW22817   1.205   5.865  10.661  0.0000  0.0000  0.0000
 3301SOL    HW122818   1.124   5.863  10.713  0.0000  0.0000  0.0000
 3301SOL    HW222819   1.260   5.928  10.706  0.0000  0.0000  0.0000
 3301SOL     MW22820   1.201   5.873  10.674  0.0000  0.0000  0.0000
 3302SOL     OW22821   0.049   2.774  14.063  0.0000  0.0000  0.0000
 3302SOL    HW122822   0.018   2.734  13.982  0.0000  0.0000  0.0000
 3302SOL    HW222823  -0.008   2.851  14.075  0.0000  0.0000  0.0000
 3302SOL     MW22824   0.037   2.779  14.054  0.0000  0.0000  0.0000
 3303SOL     OW22825   3.042   5.622   9.686  0.0000  0.0000  0.0000
 3303SOL    HW122826   2.970   5.566   9.659  0.0000  0.0000  0.0000
 3303SOL    HW222827   3.120   5.579   9.652  0.0000  0.0000  0.0000
 3303SOL     MW22828   3.043   5.609   9.678  0.0000  0.0000  0.0000
 3304SOL     OW22829   3.455   2.822  10.974  0.0000  0.0000  0.0000
 3304SOL    HW122830   3.549   2.807  10.981  0.0000  0.0000  0.0000
 3304SOL    HW222831   3.427   2.843  11.064  0.0000  0.0000  0.0000
 3304SOL     MW22832   3.463   2.822  10.987  0.0000  0.0000  0.0000
 3305SOL     OW22833   2.640   6.970   9.927  0.0000  0.0000  0.0000
 3305SOL    HW122834   2.593   6.909   9.984  0.0000  0.0000  0.0000
 3305SOL    HW222835   2.732   6.958   9.949  0.0000  0.0000  0.0000
 3305SOL     MW22836   2.646   6.960   9.937  0.0000  0.0000  0.0000
 3306SOL     OW22837   3.807   3.098  10.083  0.0000  0.0000  0.0000
 3306SOL    HW122838   3.724   3.117  10.127  0.0000  0.0000  0.0000
 3306SOL    HW222839   3.795   3.132   9.994  0.0000  0.0000  0.0000
 3306SOL     MW22840   3.794   3.105  10.077  0.0000  0.0000  0.0000
 3307SOL     OW22841   2.144   6.521   9.705  0.0000  0.0000  0.0000
 3307SOL    HW122842   2.094   6.523   9.787  0.0000  0.0000  0.0000
 3307SOL    HW222843   2.229   6.559   9.727  0.0000  0.0000  0.0000
 3307SOL     MW22844   2.149   6.526   9.719  0.0000  0.0000  0.0000
 3308SOL     OW22845   1.771   4.592  14.494  0.0000  0.0000  0.0000
 3308SOL    HW122846   1.827   4.554  14.425  0.0000  0.0000  0.0000
 3308SOL    HW222847   1.750   4.680  14.461  0.0000  0.0000  0.0000
 3308SOL     MW22848   1.776   4.598  14.480  0.0000  0.0000  0.0000
 3309SOL     OW22849   3.468   5.943  14.283  0.0000  0.0000  0.0000
 3309SOL    HW122850   3.429   5.947  14.371  0.0000  0.0000  0.0000
 3309SOL    HW222851   3.530   6.016  14.282  0.0000  0.0000  0.0000
 3309SOL     MW22852   3.471   5.953  14.295  0.0000  0.0000  0.0000
 3310SOL     OW22853   1.851   6.467  10.551  0.0000  0.0000  0.0000
 3310SOL    HW122854   1.761   6.440  10.566  0.0000  0.0000  0.0000
 3310SOL    HW222855   1.859   6.550  10.598  0.0000  0.0000  0.0000
 3310SOL     MW22856   1.840   6.474  10.559  0.0000  0.0000  0.0000
 3311SOL     OW22857   0.905   6.913   9.846  0.0000  0.0000  0.0000
 3311SOL    HW122858   0.980   6.973   9.845  0.0000  0.0000  0.0000
 3311SOL    HW222859   0.939   6.830   9.813  0.0000  0.0000  0.0000
 3311SOL     MW22860   0.919   6.910   9.842  0.0000  0.0000  0.0000
 3312SOL     OW22861   0.929   7.014  13.994  0.0000  0.0000  0.0000
 3312SOL    HW122862   0.860   6.997  14.058  0.0000  0.0000  0.0000
 3312SOL    HW222863   0.882   7.048  13.918  0.0000  0.0000  0.0000
 3312SOL     MW22864   0.914   7.016  13.992  0.0000  0.0000  0.0000
 3313SOL     OW22865   2.670   6.201  10.009  0.0000  0.0000  0.0000
 3313SOL    HW122866   2.737   6.260  10.046  0.0000  0.0000  0.0000
 3313SOL    HW222867   2.587   6.237  10.040  0.0000  0.0000  0.0000
 3313SOL     MW22868   2.668   6.214  10.018  0.0000  0.0000  0.0000
 3314SOL     OW22869   4.042   4.749  10.221  0.0000  0.0000  0.0000
 3314SOL    HW122870   3.969   4.794  10.264  0.0000  0.0000  0.0000
 3314SOL    HW222871   4.044   4.786  10.133  0.0000  0.0000  0.0000
 3314SOL     MW22872   4.033   4.760  10.215  0.0000  0.0000  0.0000
 3315SOL     OW22873   4.390   6.196  12.893  0.0000  0.0000  0.0000
 3315SOL    HW122874   4.485   6.209  12.903  0.0000  0.0000  0.0000
 3315SOL    HW222875   4.351   6.249  12.963  0.0000  0.0000  0.0000
 3315SOL     MW22876   4.398   6.205  12.903  0.0000  0.0000  0.0000
 3316SOL     OW22877   2.345   7.065  10.139  0.0000  0.0000  0.0000
 3316SOL    HW122878   2.426   7.116  10.135  0.0000  0.0000  0.0000
 3316SOL    HW222879   2.372   6.976  10.119  0.0000  0.0000  0.0000
 3316SOL     MW22880   2.359   7.060  10.136  0.0000  0.0000  0.0000
 3317SOL     OW22881   4.254   6.735  10.045  0.0000  0.0000  0.0000
 3317SOL    HW122882   4.332   6.774  10.085  0.0000  0.0000  0.0000
 3317SOL    HW222883   4.288   6.659   9.997  0.0000  0.0000  0.0000
 3317SOL     MW22884   4.269   6.730  10.044  0.0000  0.0000  0.0000
 3318SOL     OW22885   0.154   4.899  12.349  0.0000  0.0000  0.0000
 3318SOL    HW122886   0.096   4.834  12.309  0.0000  0.0000  0.0000
 3318SOL    HW222887   0.103   4.935  12.421  0.0000  0.0000  0.0000
 3318SOL     MW22888   0.139   4.895  12.353  0.0000  0.0000  0.0000
 3319SOL     OW22889   1.048   5.713  14.324  0.0000  0.0000  0.0000
 3319SOL    HW122890   1.099   5.779  14.277  0.0000  0.0000  0.0000
 3319SOL    HW222891   1.031   5.645  14.259  0.0000  0.0000  0.0000
 3319SOL     MW22892   1.052   5.713  14.309  0.0000  0.0000  0.0000
 3320SOL     OW22893   2.426   4.404   9.933  0.0000  0.0000  0.0000
 3320SOL    HW122894   2.489   4.398   9.862  0.0000  0.0000  0.0000
 3320SOL    HW222895   2.474   4.448  10.004  0.0000  0.0000  0.0000
 3320SOL     MW22896   2.440   4.409   9.933  0.0000  0.0000  0.0000
 3321SOL     OW22897   1.255   2.771  10.072  0.0000  0.0000  0.0000
 3321SOL    HW122898   1.291   2.837  10.013  0.0000  0.0000  0.0000
 3321SOL    HW222899   1.296   2.689  10.044  0.0000  0.0000  0.0000
 3321SOL     MW22900   1.265   2.769  10.060  0.0000  0.0000  0.0000
 3322SOL     OW22901   3.064   2.590  13.661  0.0000  0.0000  0.0000
 3322SOL    HW122902   2.977   2.630  13.662  0.0000  0.0000  0.0000
 3322SOL    HW222903   3.049   2.500  13.690  0.0000  0.0000  0.0000
 3322SOL     MW22904   3.051   2.583  13.665  0.0000  0.0000  0.0000
 3323SOL     OW22905   2.131   2.601  13.740  0.0000  0.0000  0.0000
 3323SOL    HW122906   2.080   2.654  13.802  0.0000  0.0000  0.0000
 3323SOL    HW222907   2.065   2.564  13.681  0.0000  0.0000  0.0000
 3323SOL     MW22908   2.115   2.603  13.741  0.0000  0.0000  0.0000
 3324SOL     OW22909   2.305   5.077   9.833  0.0000  0.0000  0.0000
 3324SOL    HW122910   2.347   5.012   9.777  0.0000  0.0000  0.0000
 3324SOL    HW222911   2.213   5.052   9.835  0.0000  0.0000  0.0000
 3324SOL     MW22912   2.299   5.065   9.826  0.0000  0.0000  0.0000
 3325SOL     OW22913   0.554   2.989  13.456  0.0000  0.0000  0.0000
 3325SOL    HW122914   0.620   2.949  13.513  0.0000  0.0000  0.0000
 3325SOL    HW222915   0.578   3.081  13.453  0.0000  0.0000  0.0000
 3325SOL     MW22916   0.566   2.996  13.463  0.0000  0.0000  0.0000
 3326SOL     OW22917   1.768   6.441   9.806  0.0000  0.0000  0.0000
 3326SOL    HW122918   1.734   6.504   9.869  0.0000  0.0000  0.0000
 3326SOL    HW222919   1.724   6.463   9.724  0.0000  0.0000  0.0000
 3326SOL     MW22920   1.758   6.452   9.803  0.0000  0.0000  0.0000
 3327SOL     OW22921   0.860   5.525  14.102  0.0000  0.0000  0.0000
 3327SOL    HW122922   0.867   5.575  14.020  0.0000  0.0000  0.0000
 3327SOL    HW222923   0.818   5.443  14.077  0.0000  0.0000  0.0000
 3327SOL     MW22924   0.856   5.521  14.088  0.0000  0.0000  0.0000
 3328SOL     OW22925   2.415   3.317  11.552  0.0000  0.0000  0.0000
 3328SOL    HW122926   2.333   3.340  11.507  0.0000  0.0000  0.0000
 3328SOL    HW222927   2.444   3.398  11.592  0.0000  0.0000  0.0000
 3328SOL     MW22928   2.408   3.330  11.551  0.0000  0.0000  0.0000
 3329SOL     OW22929   0.463   6.768  10.007  0.0000  0.0000  0.0000
 3329SOL    HW122930   0.375   6.772  10.043  0.0000  0.0000  0.0000
 3329SOL    HW222931   0.454   6.800   9.917  0.0000  0.0000  0.0000
 3329SOL     MW22932   0.450   6.773  10.000  0.0000  0.0000  0.0000
 3330SOL     OW22933   1.157   7.024  11.129  0.0000  0.0000  0.0000
 3330SOL    HW122934   1.188   7.097  11.074  0.0000  0.0000  0.0000
 3330SOL    HW222935   1.214   6.951  11.105  0.0000  0.0000  0.0000
 3330SOL     MW22936   1.169   7.024  11.118  0.0000  0.0000  0.0000
 3331SOL     OW22937   3.747   3.012  13.354  0.0000  0.0000  0.0000
 3331SOL    HW122938   3.813   3.080  13.337  0.0000  0.0000  0.0000
 3331SOL    HW222939   3.779   2.966  13.432  0.0000  0.0000  0.0000
 3331SOL     MW22940   3.760   3.015  13.362  0.0000  0.0000  0.0000
 3332SOL     OW22941   3.352   7.051  11.575  0.0000  0.0000  0.0000
 3332SOL    HW122942   3.402   7.053  11.493  0.0000  0.0000  0.0000
 3332SOL    HW222943   3.394   6.982  11.626  0.0000  0.0000  0.0000
 3332SOL     MW22944   3.364   7.042  11.571  0.0000  0.0000  0.0000
 3333SOL     OW22945   3.928   2.798  14.459  0.0000  0.0000  0.0000
 3333SOL    HW122946   3.880   2.777  14.380  0.0000  0.0000  0.0000
 3333SOL    HW222947   3.926   2.894  14.465  0.0000  0.0000  0.0000
 3333SOL     MW22948   3.922   2.808  14.450  0.0000  0.0000  0.0000
 3334SOL     OW22949   3.883   4.817  14.358  0.0000  0.0000  0.0000
 3334SOL    HW122950   3.961   4.806  14.304  0.0000  0.0000  0.0000
 3334SOL    HW222951   3.906   4.778  14.442  0.0000  0.0000  0.0000
 3334SOL     MW22952   3.896   4.810  14.362  0.0000  0.0000  0.0000
 3335SOL     OW22953   3.526   3.909  10.059  0.0000  0.0000  0.0000
 3335SOL    HW122954   3.580   3.833  10.082  0.0000  0.0000  0.0000
 3335SOL    HW222955   3.452   3.905  10.120  0.0000  0.0000  0.0000
 3335SOL     MW22956   3.524   3.899  10.070  0.0000  0.0000  0.0000
 3336SOL     OW22957   2.942   6.971  13.012  0.0000  0.0000  0.0000
 3336SOL    HW122958   2.876   6.978  13.081  0.0000  0.0000  0.0000
 3336SOL    HW222959   2.967   7.061  12.993  0.0000  0.0000  0.0000
 3336SOL     MW22960   2.937   6.984  13.019  0.0000  0.0000  0.0000
 3337SOL     OW22961   3.220   5.891  14.185  0.0000  0.0000  0.0000
 3337SOL    HW122962   3.310   5.918  14.202  0.0000  0.0000  0.0000
 3337SOL    HW222963   3.227   5.826  14.115  0.0000  0.0000  0.0000
 3337SOL     MW22964   3.233   5.886  14.178  0.0000  0.0000  0.0000
 3338SOL     OW22965   1.067   3.580   9.930  0.0000  0.0000  0.0000
 3338SOL    HW122966   1.004   3.508   9.932  0.0000  0.0000  0.0000
 3338SOL    HW222967   1.141   3.550   9.983  0.0000  0.0000  0.0000
 3338SOL     MW22968   1.069   3.566   9.937  0.0000  0.0000  0.0000
 3339SOL     OW22969   1.548   2.971  13.212  0.0000  0.0000  0.0000
 3339SOL    HW122970   1.492   3.028  13.266  0.0000  0.0000  0.0000
 3339SOL    HW222971   1.535   3.002  13.123  0.0000  0.0000  0.0000
 3339SOL     MW22972   1.539   2.983  13.208  0.0000  0.0000  0.0000
 3340SOL     OW22973   0.418   5.672   9.783  0.0000  0.0000  0.0000
 3340SOL    HW122974   0.456   5.627   9.708  0.0000  0.0000  0.0000
 3340SOL    HW222975   0.489   5.676   9.847  0.0000  0.0000  0.0000
 3340SOL     MW22976   0.432   5.666   9.782  0.0000  0.0000  0.0000
 3341SOL     OW22977   2.395   5.757  14.279  0.0000  0.0000  0.0000
 3341SOL    HW122978   2.401   5.762  14.374  0.0000  0.0000  0.0000
 3341SOL    HW222979   2.470   5.806  14.247  0.0000  0.0000  0.0000
 3341SOL     MW22980   2.406   5.764  14.287  0.0000  0.0000  0.0000
 3342SOL     OW22981   2.001   5.259  14.345  0.0000  0.0000  0.0000
 3342SOL    HW122982   2.065   5.209  14.395  0.0000  0.0000  0.0000
 3342SOL    HW222983   1.917   5.233  14.382  0.0000  0.0000  0.0000
 3342SOL     MW22984   1.998   5.249  14.356  0.0000  0.0000  0.0000
 3343SOL     OW22985   1.001   3.054  10.070  0.0000  0.0000  0.0000
 3343SOL    HW122986   1.008   2.959  10.060  0.0000  0.0000  0.0000
 3343SOL    HW222987   1.039   3.089   9.989  0.0000  0.0000  0.0000
 3343SOL     MW22988   1.007   3.046  10.058  0.0000  0.0000  0.0000
 3344SOL     OW22989   4.174   6.839  13.885  0.0000  0.0000  0.0000
 3344SOL    HW122990   4.237   6.907  13.858  0.0000  0.0000  0.0000
 3344SOL    HW222991   4.164   6.852  13.979  0.0000  0.0000  0.0000
 3344SOL     MW22992   4.181   6.850  13.894  0.0000  0.0000  0.0000
 3345SOL     OW22993   2.049   6.308  14.574  0.0000  0.0000  0.0000
 3345SOL    HW122994   2.032   6.388  14.525  0.0000  0.0000  0.0000
 3345SOL    HW222995   2.115   6.261  14.522  0.0000  0.0000  0.0000
 3345SOL     MW22996   2.055   6.312  14.561  0.0000  0.0000  0.0000
 3346SOL     OW22997   1.317   5.142   9.869  0.0000  0.0000  0.0000
 3346SOL    HW122998   1.323   5.046   9.871  0.0000  0.0000  0.0000
 3346SOL    HW222999   1.227   5.160   9.845  0.0000  0.0000  0.0000
 3346SOL     MW23000   1.306   5.132   9.866  0.0000  0.0000  0.0000
 3347SOL     OW23001   3.570   3.141  10.925  0.0000  0.0000  0.0000
 3347SOL    HW123002   3.501   3.178  10.869  0.0000  0.0000  0.0000
 3347SOL    HW223003   3.532   3.060  10.959  0.0000  0.0000  0.0000
 3347SOL     MW23004   3.556   3.135  10.922  0.0000  0.0000  0.0000
 3348SOL     OW23005   3.379   7.005  10.303  0.0000  0.0000  0.0000
 3348SOL    HW123006   3.383   7.021  10.208  0.0000  0.0000  0.0000
 3348SOL    HW223007   3.468   6.977  10.326  0.0000  0.0000  0.0000
 3348SOL     MW23008   3.391   7.003  10.293  0.0000  0.0000  0.0000
 3349SOL     OW23009   3.305   2.619  10.346  0.0000  0.0000  0.0000
 3349SOL    HW123010   3.314   2.526  10.330  0.0000  0.0000  0.0000
 3349SOL    HW223011   3.312   2.628  10.441  0.0000  0.0000  0.0000
 3349SOL     MW23012   3.307   2.608  10.357  0.0000  0.0000  0.0000
 3350SOL     OW23013   2.868   5.922  13.162  0.0000  0.0000  0.0000
 3350SOL    HW123014   2.956   5.950  13.139  0.0000  0.0000  0.0000
 3350SOL    HW223015   2.829   5.896  13.078  0.0000  0.0000  0.0000
 3350SOL     MW23016   2.874   5.922  13.148  0.0000  0.0000  0.0000
 3351SOL     OW23017   1.438   6.856   9.698  0.0000  0.0000  0.0000
 3351SOL    HW123018   1.448   6.789   9.631  0.0000  0.0000  0.0000
 3351SOL    HW223019   1.344   6.872   9.704  0.0000  0.0000  0.0000
 3351SOL     MW23020   1.427   6.849   9.690  0.0000  0.0000  0.0000
 3352SOL     OW23021   4.121   4.901  13.500  0.0000  0.0000  0.0000
 3352SOL    HW123022   4.139   4.932  13.411  0.0000  0.0000  0.0000
 3352SOL    HW223023   4.028   4.878  13.500  0.0000  0.0000  0.0000
 3352SOL     MW23024   4.111   4.902  13.489  0.0000  0.0000  0.0000
 3353SOL     OW23025   4.503   5.647  10.065  0.0000  0.0000  0.0000
 3353SOL    HW123026   4.497   5.577   9.999  0.0000  0.0000  0.0000
 3353SOL    HW223027   4.588   5.633  10.106  0.0000  0.0000  0.0000
 3353SOL     MW23028   4.513   5.636  10.062  0.0000  0.0000  0.0000
 3354SOL     OW23029   1.571   6.743  11.991  0.0000  0.0000  0.0000
 3354SOL    HW123030   1.655   6.781  11.963  0.0000  0.0000  0.0000
 3354SOL    HW223031   1.593   6.692  12.068  0.0000  0.0000  0.0000
 3354SOL     MW23032   1.585   6.742  11.997  0.0000  0.0000  0.0000
 3355SOL     OW23033   0.275   3.517   9.680  0.0000  0.0000  0.0000
 3355SOL    HW123034   0.333   3.463   9.627  0.0000  0.0000  0.0000
 3355SOL    HW223035   0.222   3.454   9.728  0.0000  0.0000  0.0000
 3355SOL     MW23036   0.275   3.502   9.679  0.0000  0.0000  0.0000
 3356SOL     OW23037   1.114   3.470  13.946  0.0000  0.0000  0.0000
 3356SOL    HW123038   1.042   3.411  13.967  0.0000  0.0000  0.0000
 3356SOL    HW223039   1.186   3.412  13.921  0.0000  0.0000  0.0000
 3356SOL     MW23040   1.114   3.455  13.945  0.0000  0.0000  0.0000
 3357SOL     OW23041   3.417   6.567   9.854  0.0000  0.0000  0.0000
 3357SOL    HW123042   3.479   6.578   9.926  0.0000  0.0000  0.0000
 3357SOL    HW223043   3.427   6.475   9.827  0.0000  0.0000  0.0000
 3357SOL     MW23044   3.426   6.556   9.860  0.0000  0.0000  0.0000
 3358SOL     OW23045   2.055   5.568  14.032  0.0000  0.0000  0.0000
 3358SOL    HW123046   2.055   5.497  13.969  0.0000  0.0000  0.0000
 3358SOL    HW223047   2.028   5.645  13.983  0.0000  0.0000  0.0000
 3358SOL     MW23048   2.052   5.569  14.017  0.0000  0.0000  0.0000
 3359SOL     OW23049   0.110   5.563  13.354  0.0000  0.0000  0.0000
 3359SOL    HW123050   0.064   5.616  13.289  0.0000  0.0000  0.0000
 3359SOL    HW223051   0.088   5.604  13.438  0.0000  0.0000  0.0000
 3359SOL     MW23052   0.101   5.576  13.357  0.0000  0.0000  0.0000
 3360SOL     OW23053   4.253   2.894  13.076  0.0000  0.0000  0.0000
 3360SOL    HW123054   4.341   2.870  13.105  0.0000  0.0000  0.0000
 3360SOL    HW223055   4.198   2.886  13.154  0.0000  0.0000  0.0000
 3360SOL     MW23056   4.257   2.890  13.090  0.0000  0.0000  0.0000
 3361SOL     OW23057   3.868   3.111  14.202  0.0000  0.0000  0.0000
 3361SOL    HW123058   3.922   3.038  14.171  0.0000  0.0000  0.0000
 3361SOL    HW223059   3.782   3.096  14.162  0.0000  0.0000  0.0000
 3361SOL     MW23060   3.864   3.100  14.193  0.0000  0.0000  0.0000
 3362SOL     OW23061   2.259   6.767  14.077  0.0000  0.0000  0.0000
 3362SOL    HW123062   2.213   6.801  14.154  0.0000  0.0000  0.0000
 3362SOL    HW223063   2.213   6.807  14.003  0.0000  0.0000  0.0000
 3362SOL     MW23064   2.247   6.777  14.077  0.0000  0.0000  0.0000
 3363SOL     OW23065   3.165   5.684   9.936  0.0000  0.0000  0.0000
 3363SOL    HW123066   3.173   5.609   9.995  0.0000  0.0000  0.0000
 3363SOL    HW223067   3.128   5.648   9.855  0.0000  0.0000  0.0000
 3363SOL     MW23068   3.161   5.669   9.933  0.0000  0.0000  0.0000
 3364SOL     OW23069   2.498   7.039  13.811  0.0000  0.0000  0.0000
 3364SOL    HW123070   2.586   7.025  13.777  0.0000  0.0000  0.0000
 3364SOL    HW223071   2.441   6.991  13.750  0.0000  0.0000  0.0000
 3364SOL     MW23072   2.502   7.031  13.798  0.0000  0.0000  0.0000
 3365SOL     OW23073   4.421   6.564  14.278  0.0000  0.0000  0.0000
 3365SOL    HW123074   4.406   6.587  14.186  0.0000  0.0000  0.0000
 3365SOL    HW223075   4.333   6.551  14.314  0.0000  0.0000  0.0000
 3365SOL     MW23076   4.407   6.565  14.270  0.0000  0.0000  0.0000
 3366SOL     OW23077   2.567   4.528  10.131  0.0000  0.0000  0.0000
 3366SOL    HW123078   2.660   4.544  10.147  0.0000  0.0000  0.0000
 3366SOL    HW223079   2.531   4.506  10.217  0.0000  0.0000  0.0000
 3366SOL     MW23080   2.575   4.527  10.144  0.0000  0.0000  0.0000
 3367SOL     OW23081   3.483   3.794   9.805  0.0000  0.0000  0.0000
 3367SOL    HW123082   3.490   3.822   9.897  0.0000  0.0000  0.0000
 3367SOL    HW223083   3.421   3.856   9.766  0.0000  0.0000  0.0000
 3367SOL     MW23084   3.476   3.806   9.812  0.0000  0.0000  0.0000
 3368SOL     OW23085   0.083   7.012  13.904  0.0000  0.0000  0.0000
 3368SOL    HW123086   0.169   7.054  13.915  0.0000  0.0000  0.0000
 3368SOL    HW223087   0.033   7.074  13.851  0.0000  0.0000  0.0000
 3368SOL     MW23088   0.088   7.026  13.898  0.0000  0.0000  0.0000
 3369SOL     OW23089   4.095   5.794   9.663  0.0000  0.0000  0.0000
 3369SOL    HW123090   4.030   5.863   9.659  0.0000  0.0000  0.0000
 3369SOL    HW223091   4.097   5.757   9.574  0.0000  0.0000  0.0000
 3369SOL     MW23092   4.087   5.798   9.651  0.0000  0.0000  0.0000
 3370SOL     OW23093   4.033   3.594  11.138  0.0000  0.0000  0.0000
 3370SOL    HW123094   4.074   3.676  11.167  0.0000  0.0000  0.0000
 3370SOL    HW223095   3.972   3.621  11.070  0.0000  0.0000  0.0000
 3370SOL     MW23096   4.030   3.609  11.133  0.0000  0.0000  0.0000
 3371SOL     OW23097   1.901   3.002  14.319  0.0000  0.0000  0.0000
 3371SOL    HW123098   1.899   3.011  14.224  0.0000  0.0000  0.0000
 3371SOL    HW223099   1.830   2.941  14.339  0.0000  0.0000  0.0000
 3371SOL     MW23100   1.891   2.995  14.309  0.0000  0.0000  0.0000
 3372SOL     OW23101   0.305   5.759  14.343  0.0000  0.0000  0.0000
 3372SOL    HW123102   0.289   5.781  14.251  0.0000  0.0000  0.0000
 3372SOL    HW223103   0.389   5.801  14.364  0.0000  0.0000  0.0000
 3372SOL     MW23104   0.314   5.768  14.334  0.0000  0.0000  0.0000
 3373SOL     OW23105   0.916   6.636  10.474  0.0000  0.0000  0.0000
 3373SOL    HW123106   0.866   6.599  10.547  0.0000  0.0000  0.0000
 3373SOL    HW223107   0.967   6.563  10.440  0.0000  0.0000  0.0000
 3373SOL     MW23108   0.916   6.622  10.479  0.0000  0.0000  0.0000
 3374SOL     OW23109   3.000   6.446  14.347  0.0000  0.0000  0.0000
 3374SOL    HW123110   3.033   6.384  14.412  0.0000  0.0000  0.0000
 3374SOL    HW223111   3.017   6.532  14.384  0.0000  0.0000  0.0000
 3374SOL     MW23112   3.006   6.449  14.361  0.0000  0.0000  0.0000
 3375SOL     OW23113   0.647   3.119  10.562  0.0000  0.0000  0.0000
 3375SOL    HW123114   0.734   3.113  10.523  0.0000  0.0000  0.0000
 3375SOL    HW223115   0.594   3.162  10.494  0.0000  0.0000  0.0000
 3375SOL     MW23116   0.651   3.124  10.548  0.0000  0.0000  0.0000
 3376SOL     OW23117   1.231   6.748  13.076  0.0000  0.0000  0.0000
 3376SOL    HW123118   1.195   6.708  12.997  0.0000  0.0000  0.0000
 3376SOL    HW223119   1.201   6.691  13.147  0.0000  0.0000  0.0000
 3376SOL     MW23120   1.222   6.735  13.075  0.0000  0.0000  0.0000
 3377SOL     OW23121   0.271   6.923  12.335  0.0000  0.0000  0.0000
 3377SOL    HW123122   0.298   6.933  12.426  0.0000  0.0000  0.0000
 3377SOL    HW223123   0.196   6.981  12.324  0.0000  0.0000  0.0000
 3377SOL     MW23124   0.265   6.932  12.345  0.0000  0.0000  0.0000
 3378SOL     OW23125   3.672   6.915  10.357  0.0000  0.0000  0.0000
 3378SOL    HW123126   3.762   6.888  10.338  0.0000  0.0000  0.0000
 3378SOL    HW223127   3.680   7.003  10.394  0.0000  0.0000  0.0000
 3378SOL     MW23128   3.685   6.923  10.359  0.0000  0.0000  0.0000
 3379SOL     OW23129   2.882   2.691  14.133  0.0000  0.0000  0.0000
 3379SOL    HW123130   2.844   2.769  14.092  0.0000  0.0000  0.0000
 3379SOL    HW223131   2.814   2.661  14.195  0.0000  0.0000  0.0000
 3379SOL     MW23132   2.868   2.698  14.136  0.0000  0.0000  0.0000
 3380SOL     OW23133   2.357   6.676   9.837  0.0000  0.0000  0.0000
 3380SOL    HW123134   2.418   6.605   9.817  0.0000  0.0000  0.0000
 3380SOL    HW223135   2.354   6.728   9.757  0.0000  0.0000  0.0000
 3380SOL     MW23136   2.365   6.674   9.824  0.0000  0.0000  0.0000
 3381SOL     OW23137   0.225   3.747  14.402  0.0000  0.0000  0.0000
 3381SOL    HW123138   0.220   3.651  14.404  0.0000  0.0000  0.0000
 3381SOL    HW223139   0.171   3.773  14.328  0.0000  0.0000  0.0000
 3381SOL     MW23140   0.217   3.738  14.393  0.0000  0.0000  0.0000
 3382SOL     OW23141   0.578   6.011  14.023  0.0000  0.0000  0.0000
 3382SOL    HW123142   0.670   6.037  14.018  0.0000  0.0000  0.0000
 3382SOL    HW223143   0.537   6.078  14.079  0.0000  0.0000  0.0000
 3382SOL     MW23144   0.584   6.023  14.030  0.0000  0.0000  0.0000
 3383SOL     OW23145   3.583   3.107  10.247  0.0000  0.0000  0.0000
 3383SOL    HW123146   3.544   3.020  10.242  0.0000  0.0000  0.0000
 3383SOL    HW223147   3.511   3.166  10.224  0.0000  0.0000  0.0000
 3383SOL     MW23148   3.568   3.104  10.243  0.0000  0.0000  0.0000
 3384SOL     OW23149   2.188   6.025  10.464  0.0000  0.0000  0.0000
 3384SOL    HW123150   2.170   6.090  10.532  0.0000  0.0000  0.0000
 3384SOL    HW223151   2.147   5.945  10.497  0.0000  0.0000  0.0000
 3384SOL     MW23152   2.180   6.023  10.478  0.0000  0.0000  0.0000
 3385SOL     OW23153   1.586   3.811  10.602  0.0000  0.0000  0.0000
 3385SOL    HW123154   1.545   3.898  10.607  0.0000  0.0000  0.0000
 3385SOL    HW223155   1.564   3.779  10.515  0.0000  0.0000  0.0000
 3385SOL     MW23156   1.578   3.818  10.591  0.0000  0.0000  0.0000
 3386SOL     OW23157   0.106   3.139  10.493  0.0000  0.0000  0.0000
 3386SOL    HW123158   0.115   3.107  10.403  0.0000  0.0000  0.0000
 3386SOL    HW223159   0.166   3.085  10.544  0.0000  0.0000  0.0000
 3386SOL     MW23160   0.115   3.128  10.488  0.0000  0.0000  0.0000
 3387SOL     OW23161   2.331   6.609  12.909  0.0000  0.0000  0.0000
 3387SOL    HW123162   2.284   6.591  12.990  0.0000  0.0000  0.0000
 3387SOL    HW223163   2.353   6.702  12.913  0.0000  0.0000  0.0000
 3387SOL     MW23164   2.328   6.619  12.920  0.0000  0.0000  0.0000
 3388SOL     OW23165   1.164   3.406  13.512  0.0000  0.0000  0.0000
 3388SOL    HW123166   1.249   3.423  13.471  0.0000  0.0000  0.0000
 3388SOL    HW223167   1.185   3.360  13.593  0.0000  0.0000  0.0000
 3388SOL     MW23168   1.178   3.402  13.517  0.0000  0.0000  0.0000
 3389SOL     OW23169   0.680   6.654  13.993  0.0000  0.0000  0.0000
 3389SOL    HW123170   0.695   6.562  14.014  0.0000  0.0000  0.0000
 3389SOL    HW223171   0.735   6.703  14.055  0.0000  0.0000  0.0000
 3389SOL     MW23172   0.689   6.648  14.004  0.0000  0.0000  0.0000
 3390SOL     OW23173   1.975   4.485   9.692  0.0000  0.0000  0.0000
 3390SOL    HW123174   1.924   4.565   9.706  0.0000  0.0000  0.0000
 3390SOL    HW223175   2.001   4.489   9.600  0.0000  0.0000  0.0000
 3390SOL     MW23176   1.972   4.496   9.682  0.0000  0.0000  0.0000
 3391SOL     OW23177   4.434   5.600  10.430  0.0000  0.0000  0.0000
 3391SOL    HW123178   4.468   5.687  10.454  0.0000  0.0000  0.0000
 3391SOL    HW223179   4.368   5.618  10.363  0.0000  0.0000  0.0000
 3391SOL     MW23180   4.430   5.614  10.424  0.0000  0.0000  0.0000
 3392SOL     OW23181   1.565   6.089  14.227  0.0000  0.0000  0.0000
 3392SOL    HW123182   1.609   6.004  14.236  0.0000  0.0000  0.0000
 3392SOL    HW223183   1.560   6.104  14.133  0.0000  0.0000  0.0000
 3392SOL     MW23184   1.571   6.080  14.216  0.0000  0.0000  0.0000
 3393SOL     OW23185   2.167   2.884  14.324  0.0000  0.0000  0.0000
 3393SOL    HW123186   2.232   2.954  14.330  0.0000  0.0000  0.0000
 3393SOL    HW223187   2.082   2.929  14.332  0.0000  0.0000  0.0000
 3393SOL     MW23188   2.164   2.899  14.326  0.0000  0.0000  0.0000
 3394SOL     OW23189   0.337   4.300  13.242  0.0000  0.0000  0.0000
 3394SOL    HW123190   0.429   4.308  13.268  0.0000  0.0000  0.0000
 3394SOL    HW223191   0.338   4.234  13.173  0.0000  0.0000  0.0000
 3394SOL     MW23192   0.349   4.292  13.236  0.0000  0.0000  0.0000
 3395SOL     OW23193   2.432   6.988  14.095  0.0000  0.0000  0.0000
 3395SOL    HW123194   2.364   6.922  14.078  0.0000  0.0000  0.0000
 3395SOL    HW223195   2.462   7.014  14.008  0.0000  0.0000  0.0000
 3395SOL     MW23196   2.427   6.983  14.081  0.0000  0.0000  0.0000
 3396SOL     OW23197   4.282   5.665  13.838  0.0000  0.0000  0.0000
 3396SOL    HW123198   4.222   5.714  13.894  0.0000  0.0000  0.0000
 3396SOL    HW223199   4.231   5.591  13.806  0.0000  0.0000  0.0000
 3396SOL     MW23200   4.268   5.661  13.841  0.0000  0.0000  0.0000
 3397SOL     OW23201   4.492   3.862  14.424  0.0000  0.0000  0.0000
 3397SOL    HW123202   4.554   3.807  14.472  0.0000  0.0000  0.0000
 3397SOL    HW223203   4.431   3.892  14.490  0.0000  0.0000  0.0000
 3397SOL     MW23204   4.492   3.858  14.439  0.0000  0.0000  0.0000
 3398SOL     OW23205   4.337   5.916  12.998  0.0000  0.0000  0.0000
 3398SOL    HW123206   4.361   5.975  12.926  0.0000  0.0000  0.0000
 3398SOL    HW223207   4.354   5.828  12.963  0.0000  0.0000  0.0000
 3398SOL     MW23208   4.343   5.912  12.984  0.0000  0.0000  0.0000
 3399SOL     OW23209   3.378   3.072  10.458  0.0000  0.0000  0.0000
 3399SOL    HW123210   3.442   3.107  10.397  0.0000  0.0000  0.0000
 3399SOL    HW223211   3.417   2.990  10.489  0.0000  0.0000  0.0000
 3399SOL     MW23212   3.392   3.066  10.454  0.0000  0.0000  0.0000
 3400SOL     OW23213   4.258   2.613  13.328  0.0000  0.0000  0.0000
 3400SOL    HW123214   4.213   2.546  13.275  0.0000  0.0000  0.0000
 3400SOL    HW223215   4.191   2.680  13.344  0.0000  0.0000  0.0000
 3400SOL     MW23216   4.243   2.613  13.323  0.0000  0.0000  0.0000
 3401SOL     OW23217   0.363   2.816   9.761  0.0000  0.0000  0.0000
 3401SOL    HW123218   0.337   2.892   9.814  0.0000  0.0000  0.0000
 3401SOL    HW223219   0.345   2.740   9.818  0.0000  0.0000  0.0000
 3401SOL     MW23220   0.357   2.816   9.776  0.0000  0.0000  0.0000
 3402SOL     OW23221   3.633   4.356  14.529  0.0000  0.0000  0.0000
 3402SOL    HW123222   3.642   4.434  14.473  0.0000  0.0000  0.0000
 3402SOL    HW223223   3.555   4.312  14.495  0.0000  0.0000  0.0000
 3402SOL     MW23224   3.624   4.361  14.517  0.0000  0.0000  0.0000
 3403SOL     OW23225   4.405   4.407   9.806  0.0000  0.0000  0.0000
 3403SOL    HW123226   4.452   4.448   9.878  0.0000  0.0000  0.0000
 3403SOL    HW223227   4.415   4.468   9.733  0.0000  0.0000  0.0000
 3403SOL     MW23228   4.413   4.420   9.806  0.0000  0.0000  0.0000
 3404SOL     OW23229   1.338   4.562   9.782  0.0000  0.0000  0.0000
 3404SOL    HW123230   1.385   4.479   9.782  0.0000  0.0000  0.0000
 3404SOL    HW223231   1.252   4.541   9.745  0.0000  0.0000  0.0000
 3404SOL     MW23232   1.333   4.549   9.777  0.0000  0.0000  0.0000
 3405SOL     OW23233   2.014   6.240  11.974  0.0000  0.0000  0.0000
 3405SOL    HW123234   2.086   6.274  12.028  0.0000  0.0000  0.0000
 3405SOL    HW223235   1.967   6.318  11.945  0.0000  0.0000  0.0000
 3405SOL     MW23236   2.017   6.255  11.978  0.0000  0.0000  0.0000
 3406SOL     OW23237   4.295   2.830  13.581  0.0000  0.0000  0.0000
 3406SOL    HW123238   4.333   2.887  13.648  0.0000  0.0000  0.0000
 3406SOL    HW223239   4.259   2.756  13.631  0.0000  0.0000  0.0000
 3406SOL     MW23240   4.296   2.827  13.597  0.0000  0.0000  0.0000
 3407SOL     OW23241   0.993   3.866  14.457  0.0000  0.0000  0.0000
 3407SOL    HW123242   0.999   3.954  14.493  0.0000  0.0000  0.0000
 3407SOL    HW223243   0.919   3.870  14.396  0.0000  0.0000  0.0000
 3407SOL     MW23244   0.984   3.878  14.454  0.0000  0.0000  0.0000
 3408SOL     OW23245   3.918   3.495  11.378  0.0000  0.0000  0.0000
 3408SOL    HW123246   3.970   3.539  11.311  0.0000  0.0000  0.0000
 3408SOL    HW223247   3.948   3.532  11.461  0.0000  0.0000  0.0000
 3408SOL     MW23248   3.928   3.506  11.380  0.0000  0.0000  0.0000
 3409SOL     OW23249   2.099   6.745  14.411  0.0000  0.0000  0.0000
 3409SOL    HW123250   2.194   6.752  14.425  0.0000  0.0000  0.0000
 3409SOL    HW223251   2.067   6.835  14.420  0.0000  0.0000  0.0000
 3409SOL     MW23252   2.107   6.758  14.414  0.0000  0.0000  0.0000
 3410SOL     OW23253   0.787   3.245  10.048  0.0000  0.0000  0.0000
 3410SOL    HW123254   0.845   3.182  10.093  0.0000  0.0000  0.0000
 3410SOL    HW223255   0.729   3.276  10.117  0.0000  0.0000  0.0000
 3410SOL     MW23256   0.787   3.241  10.063  0.0000  0.0000  0.0000
 3411SOL     OW23257   0.810   5.907  12.657  0.0000  0.0000  0.0000
 3411SOL    HW123258   0.793   5.962  12.580  0.0000  0.0000  0.0000
 3411SOL    HW223259   0.785   5.962  12.731  0.0000  0.0000  0.0000
 3411SOL     MW23260   0.805   5.921  12.656  0.0000  0.0000  0.0000
 3412SOL     OW23261   2.874   6.218  13.542  0.0000  0.0000  0.0000
 3412SOL    HW123262   2.809   6.266  13.593  0.0000  0.0000  0.0000
 3412SOL    HW223263   2.955   6.227  13.592  0.0000  0.0000  0.0000
 3412SOL     MW23264   2.876   6.226  13.555  0.0000  0.0000  0.0000
 3413SOL     OW23265   3.520   6.842  14.541  0.0000  0.0000  0.0000
 3413SOL    HW123266   3.580   6.768  14.537  0.0000  0.0000  0.0000
 3413SOL    HW223267   3.577   6.919  14.541  0.0000  0.0000  0.0000
 3413SOL     MW23268   3.536   6.843  14.541  0.0000  0.0000  0.0000
 3414SOL     OW23269   4.381   5.728  14.158  0.0000  0.0000  0.0000
 3414SOL    HW123270   4.379   5.635  14.138  0.0000  0.0000  0.0000
 3414SOL    HW223271   4.433   5.735  14.238  0.0000  0.0000  0.0000
 3414SOL     MW23272   4.387   5.717  14.166  0.0000  0.0000  0.0000
 3415SOL     OW23273   1.489   3.168  10.706  0.0000  0.0000  0.0000
 3415SOL    HW123274   1.405   3.157  10.662  0.0000  0.0000  0.0000
 3415SOL    HW223275   1.468   3.162  10.800  0.0000  0.0000  0.0000
 3415SOL     MW23276   1.475   3.166  10.713  0.0000  0.0000  0.0000
 3416SOL     OW23277   0.538   5.722  13.989  0.0000  0.0000  0.0000
 3416SOL    HW123278   0.474   5.792  14.003  0.0000  0.0000  0.0000
 3416SOL    HW223279   0.546   5.679  14.074  0.0000  0.0000  0.0000
 3416SOL     MW23280   0.531   5.725  14.002  0.0000  0.0000  0.0000
 3417SOL     OW23281   2.485   5.889  14.498  0.0000  0.0000  0.0000
 3417SOL    HW123282   2.529   5.836  14.564  0.0000  0.0000  0.0000
 3417SOL    HW223283   2.469   5.973  14.542  0.0000  0.0000  0.0000
 3417SOL     MW23284   2.489   5.893  14.512  0.0000  0.0000  0.0000
 3418SOL     OW23285   0.690   5.926   9.681  0.0000  0.0000  0.0000
 3418SOL    HW123286   0.741   5.893   9.755  0.0000  0.0000  0.0000
 3418SOL    HW223287   0.644   6.003   9.715  0.0000  0.0000  0.0000
 3418SOL     MW23288   0.690   5.931   9.695  0.0000  0.0000  0.0000
 3419SOL     OW23289   2.265   3.046  13.983  0.0000  0.0000  0.0000
 3419SOL    HW123290   2.306   2.964  14.011  0.0000  0.0000  0.0000
 3419SOL    HW223291   2.289   3.055  13.891  0.0000  0.0000  0.0000
 3419SOL     MW23292   2.274   3.037  13.975  0.0000  0.0000  0.0000
 3420SOL     OW23293   3.425   2.911  10.051  0.0000  0.0000  0.0000
 3420SOL    HW123294   3.465   2.845   9.994  0.0000  0.0000  0.0000
 3420SOL    HW223295   3.389   2.976   9.991  0.0000  0.0000  0.0000
 3420SOL     MW23296   3.425   2.911  10.036  0.0000  0.0000  0.0000
 3421SOL     OW23297   4.421   6.678  13.973  0.0000  0.0000  0.0000
 3421SOL    HW123298   4.359   6.749  13.954  0.0000  0.0000  0.0000
 3421SOL    HW223299   4.505   6.711  13.942  0.0000  0.0000  0.0000
 3421SOL     MW23300   4.424   6.692  13.967  0.0000  0.0000  0.0000
 3422SOL     OW23301   0.565   4.346  13.909  0.0000  0.0000  0.0000
 3422SOL    HW123302   0.556   4.441  13.902  0.0000  0.0000  0.0000
 3422SOL    HW223303   0.566   4.316  13.818  0.0000  0.0000  0.0000
 3422SOL     MW23304   0.564   4.355  13.896  0.0000  0.0000  0.0000
 3423SOL     OW23305   3.617   6.964   9.709  0.0000  0.0000  0.0000
 3423SOL    HW123306   3.686   6.927   9.654  0.0000  0.0000  0.0000
 3423SOL    HW223307   3.538   6.957   9.655  0.0000  0.0000  0.0000
 3423SOL     MW23308   3.616   6.959   9.694  0.0000  0.0000  0.0000
 3424SOL     OW23309   0.840   6.027  14.263  0.0000  0.0000  0.0000
 3424SOL    HW123310   0.804   6.099  14.315  0.0000  0.0000  0.0000
 3424SOL    HW223311   0.799   5.949  14.299  0.0000  0.0000  0.0000
 3424SOL     MW23312   0.829   6.026  14.275  0.0000  0.0000  0.0000
 3425SOL     OW23313   2.895   6.059  13.892  0.0000  0.0000  0.0000
 3425SOL    HW123314   2.931   5.982  13.848  0.0000  0.0000  0.0000
 3425SOL    HW223315   2.949   6.071  13.970  0.0000  0.0000  0.0000
 3425SOL     MW23316   2.907   6.050  13.896  0.0000  0.0000  0.0000
 3426SOL     OW23317   4.329   7.059  13.817  0.0000  0.0000  0.0000
 3426SOL    HW123318   4.289   7.126  13.762  0.0000  0.0000  0.0000
 3426SOL    HW223319   4.369   6.998  13.756  0.0000  0.0000  0.0000
 3426SOL     MW23320   4.329   7.060  13.802  0.0000  0.0000  0.0000
 3427SOL     OW23321   4.209   3.161  11.173  0.0000  0.0000  0.0000
 3427SOL    HW123322   4.152   3.228  11.136  0.0000  0.0000  0.0000
 3427SOL    HW223323   4.161   3.127  11.248  0.0000  0.0000  0.0000
 3427SOL     MW23324   4.195   3.165  11.178  0.0000  0.0000  0.0000
 3428SOL     OW23325   1.129   2.755  14.515  0.0000  0.0000  0.0000
 3428SOL    HW123326   1.085   2.808  14.450  0.0000  0.0000  0.0000
 3428SOL    HW223327   1.137   2.669  14.475  0.0000  0.0000  0.0000
 3428SOL     MW23328   1.124   2.751  14.501  0.0000  0.0000  0.0000
 3429SOL     OW23329   0.390   4.740  14.253  0.0000  0.0000  0.0000
 3429SOL    HW123330   0.428   4.742  14.340  0.0000  0.0000  0.0000
 3429SOL    HW223331   0.307   4.694  14.263  0.0000  0.0000  0.0000
 3429SOL     MW23332   0.384   4.734  14.266  0.0000  0.0000  0.0000
 3430SOL     OW23333   4.484   3.117  10.465  0.0000  0.0000  0.0000
 3430SOL    HW123334   4.434   3.111  10.546  0.0000  0.0000  0.0000
 3430SOL    HW223335   4.572   3.144  10.493  0.0000  0.0000  0.0000
 3430SOL     MW23336   4.489   3.120  10.479  0.0000  0.0000  0.0000
 3431SOL     OW23337   3.101   6.708  14.437  0.0000  0.0000  0.0000
 3431SOL    HW123338   3.074   6.798  14.454  0.0000  0.0000  0.0000
 3431SOL    HW223339   3.189   6.717  14.398  0.0000  0.0000  0.0000
 3431SOL     MW23340   3.109   6.721  14.434  0.0000  0.0000  0.0000
 3432SOL     OW23341   2.760   3.001  14.301  0.0000  0.0000  0.0000
 3432SOL    HW123342   2.852   2.986  14.320  0.0000  0.0000  0.0000
 3432SOL    HW223343   2.734   3.072  14.360  0.0000  0.0000  0.0000
 3432SOL     MW23344   2.769   3.008  14.311  0.0000  0.0000  0.0000
 3433SOL     OW23345   3.949   7.018  14.561  0.0000  0.0000  0.0000
 3433SOL    HW123346   3.953   7.000  14.467  0.0000  0.0000  0.0000
 3433SOL    HW223347   3.968   7.112  14.568  0.0000  0.0000  0.0000
 3433SOL     MW23348   3.952   7.028  14.549  0.0000  0.0000  0.0000
 3434SOL     OW23349   2.458   4.953  14.498  0.0000  0.0000  0.0000
 3434SOL    HW123350   2.394   4.885  14.516  0.0000  0.0000  0.0000
 3434SOL    HW223351   2.519   4.913  14.436  0.0000  0.0000  0.0000
 3434SOL     MW23352   2.458   4.939  14.492  0.0000  0.0000  0.0000
 3435SOL     OW23353   1.777   4.281   9.831  0.0000  0.0000  0.0000
 3435SOL    HW123354   1.802   4.227   9.906  0.0000  0.0000  0.0000
 3435SOL    HW223355   1.858   4.325   9.805  0.0000  0.0000  0.0000
 3435SOL     MW23356   1.791   4.280   9.837  0.0000  0.0000  0.0000
 3436SOL     OW23357   4.643   4.264  10.865  0.0000  0.0000  0.0000
 3436SOL    HW123358   4.707   4.329  10.895  0.0000  0.0000  0.0000
 3436SOL    HW223359   4.666   4.184  10.912  0.0000  0.0000  0.0000
 3436SOL     MW23360   4.655   4.262  10.875  0.0000  0.0000  0.0000
 3437SOL     OW23361   0.395   4.353  14.350  0.0000  0.0000  0.0000
 3437SOL    HW123362   0.487   4.373  14.336  0.0000  0.0000  0.0000
 3437SOL    HW223363   0.351   4.385  14.272  0.0000  0.0000  0.0000
 3437SOL     MW23364   0.401   4.360  14.338  0.0000  0.0000  0.0000
 3438SOL     OW23365   4.334   4.844   9.626  0.0000  0.0000  0.0000
 3438SOL    HW123366   4.281   4.921   9.647  0.0000  0.0000  0.0000
 3438SOL    HW223367   4.411   4.852   9.682  0.0000  0.0000  0.0000
 3438SOL     MW23368   4.337   4.855   9.636  0.0000  0.0000  0.0000
 3439SOL     OW23369   0.207   3.762   9.986  0.0000  0.0000  0.0000
 3439SOL    HW123370   0.169   3.773   9.899  0.0000  0.0000  0.0000
 3439SOL    HW223371   0.220   3.668   9.995  0.0000  0.0000  0.0000
 3439SOL     MW23372   0.203   3.751   9.976  0.0000  0.0000  0.0000
 3440SOL     OW23373   0.838   6.531   9.901  0.0000  0.0000  0.0000
 3440SOL    HW123374   0.819   6.540   9.994  0.0000  0.0000  0.0000
 3440SOL    HW223375   0.851   6.438   9.887  0.0000  0.0000  0.0000
 3440SOL     MW23376   0.837   6.520   9.911  0.0000  0.0000  0.0000
 3441SOL     OW23377   3.347   3.217  10.801  0.0000  0.0000  0.0000
 3441SOL    HW123378   3.311   3.297  10.839  0.0000  0.0000  0.0000
 3441SOL    HW223379   3.286   3.194  10.731  0.0000  0.0000  0.0000
 3441SOL     MW23380   3.334   3.224  10.797  0.0000  0.0000  0.0000
 3442SOL     OW23381   4.642   5.950  12.770  0.0000  0.0000  0.0000
 3442SOL    HW123382   4.646   5.992  12.856  0.0000  0.0000  0.0000
 3442SOL    HW223383   4.675   6.016  12.709  0.0000  0.0000  0.0000
 3442SOL     MW23384   4.647   5.964  12.773  0.0000  0.0000  0.0000
 3443SOL     OW23385   0.963   4.270   9.615  0.0000  0.0000  0.0000
 3443SOL    HW123386   0.912   4.237   9.688  0.0000  0.0000  0.0000
 3443SOL    HW223387   1.045   4.220   9.618  0.0000  0.0000  0.0000
 3443SOL     MW23388   0.967   4.259   9.625  0.0000  0.0000  0.0000
 3444SOL     OW23389   2.016   5.377  13.843  0.0000  0.0000  0.0000
 3444SOL    HW123390   2.006   5.386  13.749  0.0000  0.0000  0.0000
 3444SOL    HW223391   2.094   5.323  13.854  0.0000  0.0000  0.0000
 3444SOL     MW23392   2.025   5.371  13.832  0.0000  0.0000  0.0000
 3445SOL     OW23393   1.401   2.715  14.515  0.0000  0.0000  0.0000
 3445SOL    HW123394   1.421   2.746  14.427  0.0000  0.0000  0.0000
 3445SOL    HW223395   1.317   2.757  14.537  0.0000  0.0000  0.0000
 3445SOL     MW23396   1.393   2.725  14.506  0.0000  0.0000  0.0000
 3446SOL     OW23397   0.808   4.101  12.301  0.0000  0.0000  0.0000
 3446SOL    HW123398   0.737   4.064  12.352  0.0000  0.0000  0.0000
 3446SOL    HW223399   0.772   4.110  12.213  0.0000  0.0000  0.0000
 3446SOL     MW23400   0.794   4.098  12.296  0.0000  0.0000  0.0000
 3447SOL     OW23401   3.841   2.935  10.427  0.0000  0.0000  0.0000
 3447SOL    HW123402   3.801   2.881  10.495  0.0000  0.0000  0.0000
 3447SOL    HW223403   3.788   3.014  10.425  0.0000  0.0000  0.0000
 3447SOL     MW23404   3.829   2.938  10.436  0.0000  0.0000  0.0000
 3448SOL     OW23405   3.787   3.185   9.828  0.0000  0.0000  0.0000
 3448SOL    HW123406   3.753   3.102   9.794  0.0000  0.0000  0.0000
 3448SOL    HW223407   3.864   3.203   9.775  0.0000  0.0000  0.0000
 3448SOL     MW23408   3.793   3.176   9.817  0.0000  0.0000  0.0000
 3449SOL     OW23409   3.162   2.841   9.750  0.0000  0.0000  0.0000
 3449SOL    HW123410   3.103   2.769   9.775  0.0000  0.0000  0.0000
 3449SOL    HW223411   3.241   2.826   9.800  0.0000  0.0000  0.0000
 3449SOL     MW23412   3.164   2.830   9.759  0.0000  0.0000  0.0000
 3450SOL     OW23413   2.731   5.525  14.464  0.0000  0.0000  0.0000
 3450SOL    HW123414   2.782   5.468  14.521  0.0000  0.0000  0.0000
 3450SOL    HW223415   2.700   5.467  14.394  0.0000  0.0000  0.0000
 3450SOL     MW23416   2.734   5.510  14.462  0.0000  0.0000  0.0000
 3451SOL     OW23417   3.677   4.586  14.370  0.0000  0.0000  0.0000
 3451SOL    HW123418   3.625   4.664  14.388  0.0000  0.0000  0.0000
 3451SOL    HW223419   3.735   4.611  14.298  0.0000  0.0000  0.0000
 3451SOL     MW23420   3.678   4.599  14.363  0.0000  0.0000  0.0000
 3452SOL     OW23421   2.583   4.842  14.234  0.0000  0.0000  0.0000
 3452SOL    HW123422   2.666   4.794  14.232  0.0000  0.0000  0.0000
 3452SOL    HW223423   2.559   4.852  14.142  0.0000  0.0000  0.0000
 3452SOL     MW23424   2.591   4.837  14.221  0.0000  0.0000  0.0000
 3453SOL     OW23425   4.565   5.601   9.632  0.0000  0.0000  0.0000
 3453SOL    HW123426   4.619   5.525   9.608  0.0000  0.0000  0.0000
 3453SOL    HW223427   4.628   5.668   9.658  0.0000  0.0000  0.0000
 3453SOL     MW23428   4.581   5.600   9.632  0.0000  0.0000  0.0000
 3454SOL     OW23429   0.845   7.029  10.212  0.0000  0.0000  0.0000
 3454SOL    HW123430   0.804   6.958  10.163  0.0000  0.0000  0.0000
 3454SOL    HW223431   0.903   7.071  10.148  0.0000  0.0000  0.0000
 3454SOL     MW23432   0.847   7.025  10.197  0.0000  0.0000  0.0000
 3455SOL     OW23433   2.749   5.113  14.047  0.0000  0.0000  0.0000
 3455SOL    HW123434   2.701   5.194  14.029  0.0000  0.0000  0.0000
 3455SOL    HW223435   2.688   5.043  14.024  0.0000  0.0000  0.0000
 3455SOL     MW23436   2.735   5.115  14.041  0.0000  0.0000  0.0000
 3456SOL     OW23437   4.077   3.333  10.406  0.0000  0.0000  0.0000
 3456SOL    HW123438   4.100   3.426  10.407  0.0000  0.0000  0.0000
 3456SOL    HW223439   4.021   3.321  10.483  0.0000  0.0000  0.0000
 3456SOL     MW23440   4.073   3.344  10.416  0.0000  0.0000  0.0000
 3457SOL     OW23441   0.522   4.880  10.237  0.0000  0.0000  0.0000
 3457SOL    HW123442   0.504   4.931  10.159  0.0000  0.0000  0.0000
 3457SOL    HW223443   0.442   4.887  10.290  0.0000  0.0000  0.0000
 3457SOL     MW23444   0.509   4.887  10.234  0.0000  0.0000  0.0000
 3458SOL     OW23445   0.200   4.447  14.167  0.0000  0.0000  0.0000
 3458SOL    HW123446   0.176   4.446  14.075  0.0000  0.0000  0.0000
 3458SOL    HW223447   0.132   4.499  14.209  0.0000  0.0000  0.0000
 3458SOL     MW23448   0.188   4.453  14.161  0.0000  0.0000  0.0000
 3459SOL     OW23449   4.270   3.921   9.634  0.0000  0.0000  0.0000
 3459SOL    HW123450   4.210   3.853   9.606  0.0000  0.0000  0.0000
 3459SOL    HW223451   4.214   3.994   9.658  0.0000  0.0000  0.0000
 3459SOL     MW23452   4.255   3.922   9.634  0.0000  0.0000  0.0000
 3460SOL     OW23453   2.868   3.125  10.540  0.0000  0.0000  0.0000
 3460SOL    HW123454   2.846   3.047  10.591  0.0000  0.0000  0.0000
 3460SOL    HW223455   2.956   3.148  10.568  0.0000  0.0000  0.0000
 3460SOL     MW23456   2.877   3.118  10.550  0.0000  0.0000  0.0000
 3461SOL     OW23457   2.192   6.098   9.785  0.0000  0.0000  0.0000
 3461SOL    HW123458   2.180   6.152   9.863  0.0000  0.0000  0.0000
 3461SOL    HW223459   2.108   6.055   9.772  0.0000  0.0000  0.0000
 3461SOL     MW23460   2.180   6.099   9.794  0.0000  0.0000  0.0000
 3462SOL     OW23461   1.938   3.699   9.771  0.0000  0.0000  0.0000
 3462SOL    HW123462   1.983   3.618   9.749  0.0000  0.0000  0.0000
 3462SOL    HW223463   1.954   3.757   9.696  0.0000  0.0000  0.0000
 3462SOL     MW23464   1.946   3.696   9.758  0.0000  0.0000  0.0000
 3463SOL     OW23465   2.304   4.658   9.640  0.0000  0.0000  0.0000
 3463SOL    HW123466   2.270   4.662   9.730  0.0000  0.0000  0.0000
 3463SOL    HW223467   2.227   4.669   9.585  0.0000  0.0000  0.0000
 3463SOL     MW23468   2.289   4.660   9.645  0.0000  0.0000  0.0000
 3464SOL     OW23469   3.990   3.338  14.103  0.0000  0.0000  0.0000
 3464SOL    HW123470   3.933   3.411  14.075  0.0000  0.0000  0.0000
 3464SOL    HW223471   3.930   3.271  14.133  0.0000  0.0000  0.0000
 3464SOL     MW23472   3.975   3.339  14.103  0.0000  0.0000  0.0000
 3465SOL     OW23473   3.613   2.954   9.790  0.0000  0.0000  0.0000
 3465SOL    HW123474   3.681   2.902   9.831  0.0000  0.0000  0.0000
 3465SOL    HW223475   3.598   2.912   9.706  0.0000  0.0000  0.0000
 3465SOL     MW23476   3.620   2.942   9.785  0.0000  0.0000  0.0000
 3466SOL     OW23477   2.657   5.366  13.968  0.0000  0.0000  0.0000
 3466SOL    HW123478   2.728   5.419  13.932  0.0000  0.0000  0.0000
 3466SOL    HW223479   2.577   5.415  13.946  0.0000  0.0000  0.0000
 3466SOL     MW23480   2.655   5.380  13.961  0.0000  0.0000  0.0000
 3467SOL     OW23481   2.721   6.977  13.644  0.0000  0.0000  0.0000
 3467SOL    HW123482   2.748   6.998  13.555  0.0000  0.0000  0.0000
 3467SOL    HW223483   2.704   6.882  13.642  0.0000  0.0000  0.0000
 3467SOL     MW23484   2.722   6.967  13.632  0.0000  0.0000  0.0000
 3468SOL     OW23485   3.085   5.733  14.382  0.0000  0.0000  0.0000
 3468SOL    HW123486   3.008   5.696  14.337  0.0000  0.0000  0.0000
 3468SOL    HW223487   3.134   5.778  14.313  0.0000  0.0000  0.0000
 3468SOL     MW23488   3.081   5.734  14.367  0.0000  0.0000  0.0000
 3469SOL     OW23489   1.208   4.153   9.712  0.0000  0.0000  0.0000
 3469SOL    HW123490   1.164   4.068   9.721  0.0000  0.0000  0.0000
 3469SOL    HW223491   1.203   4.191   9.800  0.0000  0.0000  0.0000
 3469SOL     MW23492   1.201   4.147   9.725  0.0000  0.0000  0.0000
 3470SOL     OW23493   1.025   4.830  14.115  0.0000  0.0000  0.0000
 3470SOL    HW123494   1.014   4.925  14.114  0.0000  0.0000  0.0000
 3470SOL    HW223495   0.943   4.797  14.152  0.0000  0.0000  0.0000
 3470SOL     MW23496   1.013   4.839  14.120  0.0000  0.0000  0.0000
 3471SOL     OW23497   3.955   6.960  14.288  0.0000  0.0000  0.0000
 3471SOL    HW123498   4.029   6.920  14.242  0.0000  0.0000  0.0000
 3471SOL    HW223499   3.884   6.958  14.225  0.0000  0.0000  0.0000
 3471SOL     MW23500   3.955   6.954  14.274  0.0000  0.0000  0.0000
 3472SOL     OW23501   3.905   2.681  10.320  0.0000  0.0000  0.0000
 3472SOL    HW123502   3.899   2.770  10.356  0.0000  0.0000  0.0000
 3472SOL    HW223503   3.972   2.638  10.373  0.0000  0.0000  0.0000
 3472SOL     MW23504   3.913   2.687  10.332  0.0000  0.0000  0.0000
 3473SOL     OW23505   4.229   6.844  10.364  0.0000  0.0000  0.0000
 3473SOL    HW123506   4.218   6.823  10.457  0.0000  0.0000  0.0000
 3473SOL    HW223507   4.199   6.766  10.319  0.0000  0.0000  0.0000
 3473SOL     MW23508   4.223   6.831  10.371  0.0000  0.0000  0.0000
 3474SOL     OW23509   1.511   3.147  10.019  0.0000  0.0000  0.0000
 3474SOL    HW123510   1.606   3.132  10.013  0.0000  0.0000  0.0000
 3474SOL    HW223511   1.498   3.183  10.107  0.0000  0.0000  0.0000
 3474SOL     MW23512   1.522   3.149  10.030  0.0000  0.0000  0.0000
 3475SOL     OW23513   0.189   7.165  14.482  0.0000  0.0000  0.0000
 3475SOL    HW123514   0.280   7.139  14.473  0.0000  0.0000  0.0000
 3475SOL    HW223515   0.157   7.175  14.393  0.0000  0.0000  0.0000
 3475SOL     MW23516   0.197   7.163  14.469  0.0000  0.0000  0.0000
 3476SOL     OW23517   4.040   3.789  10.534  0.0000  0.0000  0.0000
 3476SOL    HW123518   3.956   3.831  10.547  0.0000  0.0000  0.0000
 3476SOL    HW223519   4.102   3.845  10.581  0.0000  0.0000  0.0000
 3476SOL     MW23520   4.037   3.802  10.542  0.0000  0.0000  0.0000
 3477SOL     OW23521   4.030   4.497  13.512  0.0000  0.0000  0.0000
 3477SOL    HW123522   4.018   4.407  13.543  0.0000  0.0000  0.0000
 3477SOL    HW223523   4.114   4.495  13.465  0.0000  0.0000  0.0000
 3477SOL     MW23524   4.040   4.485  13.510  0.0000  0.0000  0.0000
 3478SOL     OW23525   2.855   5.102  10.080  0.0000  0.0000  0.0000
 3478SOL    HW123526   2.852   5.007  10.071  0.0000  0.0000  0.0000
 3478SOL    HW223527   2.785   5.135  10.024  0.0000  0.0000  0.0000
 3478SOL     MW23528   2.846   5.094  10.072  0.0000  0.0000  0.0000
 3479SOL     OW23529   3.436   6.982  14.225  0.0000  0.0000  0.0000
 3479SOL    HW123530   3.355   7.032  14.213  0.0000  0.0000  0.0000
 3479SOL    HW223531   3.474   6.976  14.137  0.0000  0.0000  0.0000
 3479SOL     MW23532   3.430   6.988  14.212  0.0000  0.0000  0.0000
 3480SOL     OW23533   4.298   2.793  10.429  0.0000  0.0000  0.0000
 3480SOL    HW123534   4.240   2.849  10.378  0.0000  0.0000  0.0000
 3480SOL    HW223535   4.384   2.804  10.388  0.0000  0.0000  0.0000
 3480SOL     MW23536   4.302   2.802  10.417  0.0000  0.0000  0.0000
 3481SOL     OW23537   2.562   6.492   9.764  0.0000  0.0000  0.0000
 3481SOL    HW123538   2.538   6.407   9.728  0.0000  0.0000  0.0000
 3481SOL    HW223539   2.646   6.513   9.723  0.0000  0.0000  0.0000
 3481SOL     MW23540   2.570   6.484   9.754  0.0000  0.0000  0.0000
 3482SOL     OW23541   0.660   5.647  10.428  0.0000  0.0000  0.0000
 3482SOL    HW123542   0.601   5.698  10.484  0.0000  0.0000  0.0000
 3482SOL    HW223543   0.747   5.684  10.444  0.0000  0.0000  0.0000
 3482SOL     MW23544   0.664   5.659  10.437  0.0000  0.0000  0.0000
 3483SOL     OW23545   3.348   6.747  14.338  0.0000  0.0000  0.0000
 3483SOL    HW123546   3.371   6.833  14.302  0.0000  0.0000  0.0000
 3483SOL    HW223547   3.388   6.746  14.425  0.0000  0.0000  0.0000
 3483SOL     MW23548   3.356   6.758  14.344  0.0000  0.0000  0.0000
 3484SOL     OW23549   2.707   6.341  14.279  0.0000  0.0000  0.0000
 3484SOL    HW123550   2.644   6.373  14.215  0.0000  0.0000  0.0000
 3484SOL    HW223551   2.785   6.394  14.265  0.0000  0.0000  0.0000
 3484SOL     MW23552   2.709   6.352  14.269  0.0000  0.0000  0.0000
 3485SOL     OW23553   3.808   5.054  14.435  0.0000  0.0000  0.0000
 3485SOL    HW123554   3.727   5.035  14.483  0.0000  0.0000  0.0000
 3485SOL    HW223555   3.841   4.968  14.410  0.0000  0.0000  0.0000
 3485SOL     MW23556   3.802   5.040  14.438  0.0000  0.0000  0.0000
 3486SOL     OW23557   4.447   5.214  14.435  0.0000  0.0000  0.0000
 3486SOL    HW123558   4.525   5.197  14.487  0.0000  0.0000  0.0000
 3486SOL    HW223559   4.446   5.309  14.423  0.0000  0.0000  0.0000
 3486SOL     MW23560   4.457   5.224  14.440  0.0000  0.0000  0.0000
 3487SOL     OW23561   3.117   3.392   9.830  0.0000  0.0000  0.0000
 3487SOL    HW123562   3.142   3.382   9.738  0.0000  0.0000  0.0000
 3487SOL    HW223563   3.200   3.393   9.877  0.0000  0.0000  0.0000
 3487SOL     MW23564   3.131   3.391   9.824  0.0000  0.0000  0.0000
 3488SOL     OW23565   2.027   5.785  13.855  0.0000  0.0000  0.0000
 3488SOL    HW123566   1.943   5.804  13.812  0.0000  0.0000  0.0000
 3488SOL    HW223567   2.028   5.842  13.932  0.0000  0.0000  0.0000
 3488SOL     MW23568   2.016   5.795  13.860  0.0000  0.0000  0.0000
 3489SOL     OW23569   3.979   7.185  10.899  0.0000  0.0000  0.0000
 3489SOL    HW123570   4.065   7.145  10.885  0.0000  0.0000  0.0000
 3489SOL    HW223571   3.945   7.200  10.811  0.0000  0.0000  0.0000
 3489SOL     MW23572   3.986   7.182  10.885  0.0000  0.0000  0.0000
 3490SOL     OW23573   1.086   4.542   9.693  0.0000  0.0000  0.0000
 3490SOL    HW123574   1.068   4.530   9.787  0.0000  0.0000  0.0000
 3490SOL    HW223575   1.018   4.491   9.649  0.0000  0.0000  0.0000
 3490SOL     MW23576   1.074   4.534   9.700  0.0000  0.0000  0.0000
 3491SOL     OW23577   3.659   5.437  14.405  0.0000  0.0000  0.0000
 3491SOL    HW123578   3.564   5.441  14.397  0.0000  0.0000  0.0000
 3491SOL    HW223579   3.692   5.467  14.320  0.0000  0.0000  0.0000
 3491SOL     MW23580   3.651   5.442  14.393  0.0000  0.0000  0.0000
 3492SOL     OW23581   2.979   5.140  14.184  0.0000  0.0000  0.0000
 3492SOL    HW123582   2.899   5.139  14.133  0.0000  0.0000  0.0000
 3492SOL    HW223583   3.009   5.050  14.185  0.0000  0.0000  0.0000
 3492SOL     MW23584   2.973   5.128  14.178  0.0000  0.0000  0.0000
 3493SOL     OW23585   4.578   2.850  10.386  0.0000  0.0000  0.0000
 3493SOL    HW123586   4.536   2.935  10.395  0.0000  0.0000  0.0000
 3493SOL    HW223587   4.607   2.847  10.295  0.0000  0.0000  0.0000
 3493SOL     MW23588   4.576   2.861  10.375  0.0000  0.0000  0.0000
 3494SOL     OW23589   1.688   3.027  10.573  0.0000  0.0000  0.0000
 3494SOL    HW123590   1.622   3.075  10.624  0.0000  0.0000  0.0000
 3494SOL    HW223591   1.715   3.089  10.505  0.0000  0.0000  0.0000
 3494SOL     MW23592   1.683   3.042  10.571  0.0000  0.0000  0.0000
 3495SOL     OW23593   0.249   5.517  14.250  0.0000  0.0000  0.0000
 3495SOL    HW123594   0.267   5.605  14.283  0.0000  0.0000  0.0000
 3495SOL    HW223595   0.327   5.494  14.200  0.0000  0.0000  0.0000
 3495SOL     MW23596   0.262   5.526  14.248  0.0000  0.0000  0.0000
 3496SOL     OW23597   0.218   6.874  14.584  0.0000  0.0000  0.0000
 3496SOL    HW123598   0.123   6.887  14.593  0.0000  0.0000  0.0000
 3496SOL    HW223599   0.251   6.959  14.554  0.0000  0.0000  0.0000
 3496SOL     MW23600   0.210   6.887  14.581  0.0000  0.0000  0.0000
 3497SOL     OW23601   4.501   5.408   9.888  0.0000  0.0000  0.0000
 3497SOL    HW123602   4.426   5.424   9.830  0.0000  0.0000  0.0000
 3497SOL    HW223603   4.489   5.317   9.917  0.0000  0.0000  0.0000
 3497SOL     MW23604   4.489   5.398   9.884  0.0000  0.0000  0.0000
 3498SOL     OW23605   1.694   4.637  14.165  0.0000  0.0000  0.0000
 3498SOL    HW123606   1.601   4.651  14.182  0.0000  0.0000  0.0000
 3498SOL    HW223607   1.703   4.649  14.071  0.0000  0.0000  0.0000
 3498SOL     MW23608   1.683   4.640  14.155  0.0000  0.0000  0.0000
 3499SOL     OW23609   2.646   3.200  14.470  0.0000  0.0000  0.0000
 3499SOL    HW123610   2.561   3.212  14.512  0.0000  0.0000  0.0000
 3499SOL    HW223611   2.699   3.273  14.502  0.0000  0.0000  0.0000
 3499SOL     MW23612   2.642   3.211  14.480  0.0000  0.0000  0.0000
 3500SOL     OW23613   4.487   5.931  12.540  0.0000  0.0000  0.0000
 3500SOL    HW123614   4.467   5.837  12.534  0.0000  0.0000  0.0000
 3500SOL    HW223615   4.517   5.944  12.630  0.0000  0.0000  0.0000
 3500SOL     MW23616   4.488   5.920  12.551  0.0000  0.0000  0.0000
 3501SOL     OW23617   3.325   2.653  13.545  0.0000  0.0000  0.0000
 3501SOL    HW123618   3.231   2.636  13.557  0.0000  0.0000  0.0000
 3501SOL    HW223619   3.333   2.748  13.549  0.0000  0.0000  0.0000
 3501SOL     MW23620   3.313   2.663  13.547  0.0000  0.0000  0.0000
 3502SOL     OW23621   0.268   5.806  14.068  0.0000  0.0000  0.0000
 3502SOL    HW123622   0.193   5.776  14.016  0.0000  0.0000  0.0000
 3502SOL    HW223623   0.266   5.901  14.059  0.0000  0.0000  0.0000
 3502SOL     MW23624   0.258   5.815  14.060  0.0000  0.0000  0.0000
 3503SOL     OW23625   0.682   2.579  10.335  0.0000  0.0000  0.0000
 3503SOL    HW123626   0.718   2.547  10.418  0.0000  0.0000  0.0000
 3503SOL    HW223627   0.721   2.523  10.268  0.0000  0.0000  0.0000
 3503SOL     MW23628   0.692   2.568  10.337  0.0000  0.0000  0.0000
 3504SOL     OW23629   1.813   6.840  11.918  0.0000  0.0000  0.0000
 3504SOL    HW123630   1.866   6.761  11.933  0.0000  0.0000  0.0000
 3504SOL    HW223631   1.826   6.893  11.996  0.0000  0.0000  0.0000
 3504SOL     MW23632   1.822   6.836  11.930  0.0000  0.0000  0.0000
 3505SOL     OW23633   2.974   2.712  10.601  0.0000  0.0000  0.0000
 3505SOL    HW123634   2.915   2.765  10.654  0.0000  0.0000  0.0000
 3505SOL    HW223635   3.042   2.773  10.572  0.0000  0.0000  0.0000
 3505SOL     MW23636   2.975   2.727  10.604  0.0000  0.0000  0.0000
 3506SOL     OW23637   4.135   6.593  14.304  0.0000  0.0000  0.0000
 3506SOL    HW123638   4.106   6.515  14.256  0.0000  0.0000  0.0000
 3506SOL    HW223639   4.138   6.565  14.395  0.0000  0.0000  0.0000
 3506SOL     MW23640   4.132   6.579  14.310  0.0000  0.0000  0.0000
 3507SOL     OW23641   2.864   2.717  10.335  0.0000  0.0000  0.0000
 3507SOL    HW123642   2.883   2.714  10.428  0.0000  0.0000  0.0000
 3507SOL    HW223643   2.807   2.794  10.325  0.0000  0.0000  0.0000
 3507SOL     MW23644   2.859   2.726  10.346  0.0000  0.0000  0.0000
 3508SOL     OW23645   4.609   5.879   9.958  0.0000  0.0000  0.0000
 3508SOL    HW123646   4.690   5.896  10.006  0.0000  0.0000  0.0000
 3508SOL    HW223647   4.584   5.791   9.984  0.0000  0.0000  0.0000
 3508SOL     MW23648   4.617   5.870   9.968  0.0000  0.0000  0.0000
 3509SOL     OW23649   0.699   7.046   9.675  0.0000  0.0000  0.0000
 3509SOL    HW123650   0.634   7.004   9.732  0.0000  0.0000  0.0000
 3509SOL    HW223651   0.780   6.997   9.692  0.0000  0.0000  0.0000
 3509SOL     MW23652   0.701   7.034   9.685  0.0000  0.0000  0.0000
 3510SOL     OW23653   0.393   4.257   9.732  0.0000  0.0000  0.0000
 3510SOL    HW123654   0.317   4.200   9.716  0.0000  0.0000  0.0000
 3510SOL    HW223655   0.364   4.343   9.702  0.0000  0.0000  0.0000
 3510SOL     MW23656   0.379   4.261   9.726  0.0000  0.0000  0.0000
 3511SOL     OW23657   1.388   6.106  12.042  0.0000  0.0000  0.0000
 3511SOL    HW123658   1.462   6.166  12.033  0.0000  0.0000  0.0000
 3511SOL    HW223659   1.427   6.022  12.063  0.0000  0.0000  0.0000
 3511SOL     MW23660   1.403   6.103  12.043  0.0000  0.0000  0.0000
 3512SOL     OW23661   2.311   5.538  14.121  0.0000  0.0000  0.0000
 3512SOL    HW123662   2.220   5.562  14.105  0.0000  0.0000  0.0000
 3512SOL    HW223663   2.346   5.610  14.174  0.0000  0.0000  0.0000
 3512SOL     MW23664   2.303   5.551  14.126  0.0000  0.0000  0.0000
 3513SOL     OW23665   0.807   3.504  14.057  0.0000  0.0000  0.0000
 3513SOL    HW123666   0.778   3.413  14.048  0.0000  0.0000  0.0000
 3513SOL    HW223667   0.834   3.511  14.149  0.0000  0.0000  0.0000
 3513SOL     MW23668   0.807   3.493  14.068  0.0000  0.0000  0.0000
 3514SOL     OW23669   2.800   6.844  12.243  0.0000  0.0000  0.0000
 3514SOL    HW123670   2.784   6.856  12.337  0.0000  0.0000  0.0000
 3514SOL    HW223671   2.764   6.758  12.223  0.0000  0.0000  0.0000
 3514SOL     MW23672   2.793   6.834  12.253  0.0000  0.0000  0.0000
 3515SOL     OW23673   2.801   2.872   9.835  0.0000  0.0000  0.0000
 3515SOL    HW123674   2.725   2.889   9.889  0.0000  0.0000  0.0000
 3515SOL    HW223675   2.875   2.905   9.886  0.0000  0.0000  0.0000
 3515SOL     MW23676   2.801   2.879   9.848  0.0000  0.0000  0.0000
 3516SOL     OW23677   3.554   7.065  11.372  0.0000  0.0000  0.0000
 3516SOL    HW123678   3.527   7.087  11.283  0.0000  0.0000  0.0000
 3516SOL    HW223679   3.639   7.021  11.362  0.0000  0.0000  0.0000
 3516SOL     MW23680   3.562   7.062  11.359  0.0000  0.0000  0.0000
 3517SOL     OW23681   3.549   5.213   9.794  0.0000  0.0000  0.0000
 3517SOL    HW123682   3.497   5.294   9.799  0.0000  0.0000  0.0000
 3517SOL    HW223683   3.523   5.163   9.871  0.0000  0.0000  0.0000
 3517SOL     MW23684   3.538   5.217   9.805  0.0000  0.0000  0.0000
 3518SOL     OW23685   4.347   6.170  11.257  0.0000  0.0000  0.0000
 3518SOL    HW123686   4.374   6.102  11.195  0.0000  0.0000  0.0000
 3518SOL    HW223687   4.256   6.190  11.232  0.0000  0.0000  0.0000
 3518SOL     MW23688   4.338   6.164  11.245  0.0000  0.0000  0.0000
 3519SOL     OW23689   3.322   2.920  13.541  0.0000  0.0000  0.0000
 3519SOL    HW123690   3.243   2.973  13.540  0.0000  0.0000  0.0000
 3519SOL    HW223691   3.383   2.967  13.483  0.0000  0.0000  0.0000
 3519SOL     MW23692   3.320   2.933  13.533  0.0000  0.0000  0.0000
 3520SOL     OW23693   1.471   2.889  13.875  0.0000  0.0000  0.0000
 3520SOL    HW123694   1.448   2.949  13.803  0.0000  0.0000  0.0000
 3520SOL    HW223695   1.555   2.921  13.907  0.0000  0.0000  0.0000
 3520SOL     MW23696   1.479   2.901  13.869  0.0000  0.0000  0.0000
 3521SOL     OW23697   2.035   4.152  14.147  0.0000  0.0000  0.0000
 3521SOL    HW123698   2.067   4.157  14.237  0.0000  0.0000  0.0000
 3521SOL    HW223699   2.052   4.061  14.121  0.0000  0.0000  0.0000
 3521SOL     MW23700   2.041   4.141  14.156  0.0000  0.0000  0.0000
 3522SOL     OW23701   2.769   6.762  14.388  0.0000  0.0000  0.0000
 3522SOL    HW123702   2.790   6.728  14.476  0.0000  0.0000  0.0000
 3522SOL    HW223703   2.694   6.710  14.360  0.0000  0.0000  0.0000
 3522SOL     MW23704   2.762   6.750  14.396  0.0000  0.0000  0.0000
 3523SOL     OW23705   1.374   7.152   9.625  0.0000  0.0000  0.0000
 3523SOL    HW123706   1.410   7.071   9.661  0.0000  0.0000  0.0000
 3523SOL    HW223707   1.451   7.205   9.603  0.0000  0.0000  0.0000
 3523SOL     MW23708   1.389   7.149   9.627  0.0000  0.0000  0.0000
 3524SOL     OW23709   0.689   3.442  13.655  0.0000  0.0000  0.0000
 3524SOL    HW123710   0.623   3.456  13.724  0.0000  0.0000  0.0000
 3524SOL    HW223711   0.640   3.403  13.583  0.0000  0.0000  0.0000
 3524SOL     MW23712   0.674   3.439  13.655  0.0000  0.0000  0.0000
 3525SOL     OW23713   0.046   5.476  12.982  0.0000  0.0000  0.0000
 3525SOL    HW123714   0.097   5.414  12.931  0.0000  0.0000  0.0000
 3525SOL    HW223715   0.039   5.554  12.926  0.0000  0.0000  0.0000
 3525SOL     MW23716   0.052   5.478  12.968  0.0000  0.0000  0.0000
 3526SOL     OW23717   1.608   5.337  13.795  0.0000  0.0000  0.0000
 3526SOL    HW123718   1.553   5.264  13.823  0.0000  0.0000  0.0000
 3526SOL    HW223719   1.655   5.362  13.874  0.0000  0.0000  0.0000
 3526SOL     MW23720   1.607   5.330  13.809  0.0000  0.0000  0.0000
 3527SOL     OW23721   3.938   3.310  10.638  0.0000  0.0000  0.0000
 3527SOL    HW123722   3.857   3.279  10.597  0.0000  0.0000  0.0000
 3527SOL    HW223723   3.908   3.362  10.713  0.0000  0.0000  0.0000
 3527SOL     MW23724   3.923   3.313  10.642  0.0000  0.0000  0.0000
 3528SOL     OW23725   4.541   6.648  13.200  0.0000  0.0000  0.0000
 3528SOL    HW123726   4.505   6.656  13.111  0.0000  0.0000  0.0000
 3528SOL    HW223727   4.606   6.717  13.205  0.0000  0.0000  0.0000
 3528SOL     MW23728   4.545   6.658  13.189  0.0000  0.0000  0.0000
 3529SOL     OW23729   2.558   3.329   9.647  0.0000  0.0000  0.0000
 3529SOL    HW123730   2.516   3.283   9.574  0.0000  0.0000  0.0000
 3529SOL    HW223731   2.646   3.291   9.651  0.0000  0.0000  0.0000
 3529SOL     MW23732   2.564   3.318   9.638  0.0000  0.0000  0.0000
 3530SOL     OW23733   0.289   6.652   9.731  0.0000  0.0000  0.0000
 3530SOL    HW123734   0.277   6.622   9.641  0.0000  0.0000  0.0000
 3530SOL    HW223735   0.373   6.697   9.730  0.0000  0.0000  0.0000
 3530SOL     MW23736   0.298   6.654   9.719  0.0000  0.0000  0.0000
 3531SOL     OW23737   3.634   3.414   9.804  0.0000  0.0000  0.0000
 3531SOL    HW123738   3.681   3.331   9.809  0.0000  0.0000  0.0000
 3531SOL    HW223739   3.549   3.396   9.843  0.0000  0.0000  0.0000
 3531SOL     MW23740   3.629   3.401   9.810  0.0000  0.0000  0.0000
 3532SOL     OW23741   4.109   2.640  10.518  0.0000  0.0000  0.0000
 3532SOL    HW123742   4.201   2.663  10.507  0.0000  0.0000  0.0000
 3532SOL    HW223743   4.101   2.554  10.476  0.0000  0.0000  0.0000
 3532SOL     MW23744   4.120   2.631  10.511  0.0000  0.0000  0.0000
 3533SOL     OW23745   2.192   2.837  13.645  0.0000  0.0000  0.0000
 3533SOL    HW123746   2.208   2.747  13.674  0.0000  0.0000  0.0000
 3533SOL    HW223747   2.102   2.837  13.614  0.0000  0.0000  0.0000
 3533SOL     MW23748   2.182   2.825  13.645  0.0000  0.0000  0.0000
 3534SOL     OW23749   1.094   4.683  14.590  0.0000  0.0000  0.0000
 3534SOL    HW123750   1.021   4.621  14.585  0.0000  0.0000  0.0000
 3534SOL    HW223751   1.121   4.696  14.499  0.0000  0.0000  0.0000
 3534SOL     MW23752   1.088   4.677  14.577  0.0000  0.0000  0.0000
 3535SOL     OW23753   0.866   5.867  14.516  0.0000  0.0000  0.0000
 3535SOL    HW123754   0.799   5.800  14.533  0.0000  0.0000  0.0000
 3535SOL    HW223755   0.936   5.819  14.471  0.0000  0.0000  0.0000
 3535SOL     MW23756   0.867   5.852  14.512  0.0000  0.0000  0.0000
 3536SOL     OW23757   1.044   5.058  10.704  0.0000  0.0000  0.0000
 3536SOL    HW123758   1.130   5.030  10.672  0.0000  0.0000  0.0000
 3536SOL    HW223759   1.033   5.147  10.669  0.0000  0.0000  0.0000
 3536SOL     MW23760   1.054   5.066  10.695  0.0000  0.0000  0.0000
 3537SOL     OW23761   0.362   6.673  14.198  0.0000  0.0000  0.0000
 3537SOL    HW123762   0.284   6.618  14.204  0.0000  0.0000  0.0000
 3537SOL    HW223763   0.378   6.682  14.104  0.0000  0.0000  0.0000
 3537SOL     MW23764   0.353   6.667  14.187  0.0000  0.0000  0.0000
 3538SOL     OW23765   1.378   2.960  13.611  0.0000  0.0000  0.0000
 3538SOL    HW123766   1.434   2.887  13.586  0.0000  0.0000  0.0000
 3538SOL    HW223767   1.393   3.026  13.542  0.0000  0.0000  0.0000
 3538SOL     MW23768   1.387   2.959  13.598  0.0000  0.0000  0.0000
 3539SOL     OW23769   1.082   5.764   9.773  0.0000  0.0000  0.0000
 3539SOL    HW123770   1.125   5.849   9.765  0.0000  0.0000  0.0000
 3539SOL    HW223771   1.049   5.745   9.686  0.0000  0.0000  0.0000
 3539SOL     MW23772   1.083   5.773   9.761  0.0000  0.0000  0.0000
 3540SOL     OW23773   1.709   3.434  14.143  0.0000  0.0000  0.0000
 3540SOL    HW123774   1.724   3.511  14.198  0.0000  0.0000  0.0000
 3540SOL    HW223775   1.624   3.449  14.102  0.0000  0.0000  0.0000
 3540SOL     MW23776   1.700   3.446  14.145  0.0000  0.0000  0.0000
 3541SOL     OW23777   1.481   4.677  14.582  0.0000  0.0000  0.0000
 3541SOL    HW123778   1.499   4.641  14.495  0.0000  0.0000  0.0000
 3541SOL    HW223779   1.388   4.699  14.580  0.0000  0.0000  0.0000
 3541SOL     MW23780   1.472   4.675  14.570  0.0000  0.0000  0.0000
 3542SOL     OW23781   0.300   4.228  13.925  0.0000  0.0000  0.0000
 3542SOL    HW123782   0.268   4.313  13.956  0.0000  0.0000  0.0000
 3542SOL    HW223783   0.392   4.241  13.907  0.0000  0.0000  0.0000
 3542SOL     MW23784   0.308   4.241  13.927  0.0000  0.0000  0.0000
 3543SOL     OW23785   4.381   5.475  10.669  0.0000  0.0000  0.0000
 3543SOL    HW123786   4.410   5.542  10.730  0.0000  0.0000  0.0000
 3543SOL    HW223787   4.407   5.507  10.583  0.0000  0.0000  0.0000
 3543SOL     MW23788   4.388   5.488  10.666  0.0000  0.0000  0.0000
 3544SOL     OW23789   0.409   7.029  10.065  0.0000  0.0000  0.0000
 3544SOL    HW123790   0.435   6.939  10.047  0.0000  0.0000  0.0000
 3544SOL    HW223791   0.362   7.024  10.149  0.0000  0.0000  0.0000
 3544SOL     MW23792   0.406   7.016  10.074  0.0000  0.0000  0.0000
 3545SOL     OW23793   4.080   3.235  13.874  0.0000  0.0000  0.0000
 3545SOL    HW123794   4.028   3.268  13.800  0.0000  0.0000  0.0000
 3545SOL    HW223795   4.043   3.279  13.950  0.0000  0.0000  0.0000
 3545SOL     MW23796   4.068   3.245  13.874  0.0000  0.0000  0.0000
 3546SOL     OW23797   1.365   6.037  10.788  0.0000  0.0000  0.0000
 3546SOL    HW123798   1.419   6.071  10.716  0.0000  0.0000  0.0000
 3546SOL    HW223799   1.363   6.108  10.852  0.0000  0.0000  0.0000
 3546SOL     MW23800   1.372   6.050  10.787  0.0000  0.0000  0.0000
 3547SOL     OW23801   2.693   5.722  10.021  0.0000  0.0000  0.0000
 3547SOL    HW123802   2.773   5.751   9.977  0.0000  0.0000  0.0000
 3547SOL    HW223803   2.664   5.799  10.070  0.0000  0.0000  0.0000
 3547SOL     MW23804   2.700   5.736  10.022  0.0000  0.0000  0.0000
 3548SOL     OW23805   0.393   3.191  14.447  0.0000  0.0000  0.0000
 3548SOL    HW123806   0.383   3.103  14.486  0.0000  0.0000  0.0000
 3548SOL    HW223807   0.327   3.244  14.491  0.0000  0.0000  0.0000
 3548SOL     MW23808   0.383   3.186  14.458  0.0000  0.0000  0.0000
 3549SOL     OW23809   3.994   5.272  14.257  0.0000  0.0000  0.0000
 3549SOL    HW123810   4.034   5.354  14.287  0.0000  0.0000  0.0000
 3549SOL    HW223811   3.914   5.264  14.308  0.0000  0.0000  0.0000
 3549SOL     MW23812   3.989   5.282  14.268  0.0000  0.0000  0.0000
 3550SOL     OW23813   2.331   3.080  13.731  0.0000  0.0000  0.0000
 3550SOL    HW123814   2.299   2.990  13.721  0.0000  0.0000  0.0000
 3550SOL    HW223815   2.254   3.135  13.721  0.0000  0.0000  0.0000
 3550SOL     MW23816   2.317   3.076  13.728  0.0000  0.0000  0.0000
 3551SOL     OW23817   1.336   6.300  14.178  0.0000  0.0000  0.0000
 3551SOL    HW123818   1.335   6.341  14.264  0.0000  0.0000  0.0000
 3551SOL    HW223819   1.406   6.345  14.131  0.0000  0.0000  0.0000
 3551SOL     MW23820   1.345   6.312  14.183  0.0000  0.0000  0.0000
 3552SOL     OW23821   4.098   4.116   9.719  0.0000  0.0000  0.0000
 3552SOL    HW123822   4.112   4.211   9.724  0.0000  0.0000  0.0000
 3552SOL    HW223823   4.004   4.105   9.735  0.0000  0.0000  0.0000
 3552SOL     MW23824   4.087   4.127   9.722  0.0000  0.0000  0.0000
 3553SOL     OW23825   4.481   6.809  10.269  0.0000  0.0000  0.0000
 3553SOL    HW123826   4.402   6.780  10.316  0.0000  0.0000  0.0000
 3553SOL    HW223827   4.522   6.728  10.239  0.0000  0.0000  0.0000
 3553SOL     MW23828   4.476   6.795  10.271  0.0000  0.0000  0.0000
 3554SOL     OW23829   4.182   2.620  13.697  0.0000  0.0000  0.0000
 3554SOL    HW123830   4.123   2.669  13.754  0.0000  0.0000  0.0000
 3554SOL    HW223831   4.125   2.586  13.627  0.0000  0.0000  0.0000
 3554SOL     MW23832   4.166   2.622  13.695  0.0000  0.0000  0.0000
 3555SOL     OW23833   3.341   5.540  14.106  0.0000  0.0000  0.0000
 3555SOL    HW123834   3.286   5.485  14.050  0.0000  0.0000  0.0000
 3555SOL    HW223835   3.370   5.481  14.176  0.0000  0.0000  0.0000
 3555SOL     MW23836   3.337   5.525  14.108  0.0000  0.0000  0.0000
 3556SOL     OW23837   4.378   6.956  14.279  0.0000  0.0000  0.0000
 3556SOL    HW123838   4.363   7.021  14.210  0.0000  0.0000  0.0000
 3556SOL    HW223839   4.467   6.926  14.265  0.0000  0.0000  0.0000
 3556SOL     MW23840   4.388   6.961  14.268  0.0000  0.0000  0.0000
 3557SOL     OW23841   2.350   2.777  13.983  0.0000  0.0000  0.0000
 3557SOL    HW123842   2.391   2.740  14.062  0.0000  0.0000  0.0000
 3557SOL    HW223843   2.277   2.719  13.964  0.0000  0.0000  0.0000
 3557SOL     MW23844   2.346   2.765  13.991  0.0000  0.0000  0.0000
 3558SOL     OW23845   3.475   3.697  14.411  0.0000  0.0000  0.0000
 3558SOL    HW123846   3.444   3.709  14.321  0.0000  0.0000  0.0000
 3558SOL    HW223847   3.414   3.748  14.464  0.0000  0.0000  0.0000
 3558SOL     MW23848   3.463   3.705  14.406  0.0000  0.0000  0.0000
 3559SOL     OW23849   1.850   6.747  10.653  0.0000  0.0000  0.0000
 3559SOL    HW123850   1.824   6.826  10.701  0.0000  0.0000  0.0000
 3559SOL    HW223851   1.882   6.779  10.569  0.0000  0.0000  0.0000
 3559SOL     MW23852   1.850   6.761  10.648  0.0000  0.0000  0.0000
 3560SOL     OW23853   1.493   7.150  13.582  0.0000  0.0000  0.0000
 3560SOL    HW123854   1.404   7.140  13.617  0.0000  0.0000  0.0000
 3560SOL    HW223855   1.513   7.064  13.544  0.0000  0.0000  0.0000
 3560SOL     MW23856   1.484   7.137  13.581  0.0000  0.0000  0.0000
 3561SOL     OW23857   4.001   4.441  14.500  0.0000  0.0000  0.0000
 3561SOL    HW123858   3.986   4.407  14.588  0.0000  0.0000  0.0000
 3561SOL    HW223859   4.081   4.397  14.470  0.0000  0.0000  0.0000
 3561SOL     MW23860   4.010   4.430  14.507  0.0000  0.0000  0.0000
 3562SOL     OW23861   4.139   4.012  10.329  0.0000  0.0000  0.0000
 3562SOL    HW123862   4.158   4.067  10.405  0.0000  0.0000  0.0000
 3562SOL    HW223863   4.126   4.073  10.257  0.0000  0.0000  0.0000
 3562SOL     MW23864   4.140   4.027  10.330  0.0000  0.0000  0.0000
 3563SOL     OW23865   3.704   3.711  10.113  0.0000  0.0000  0.0000
 3563SOL    HW123866   3.774   3.752  10.164  0.0000  0.0000  0.0000
 3563SOL    HW223867   3.749   3.644  10.061  0.0000  0.0000  0.0000
 3563SOL     MW23868   3.719   3.707  10.112  0.0000  0.0000  0.0000
 3564SOL     OW23869   2.665   3.702  14.352  0.0000  0.0000  0.0000
 3564SOL    HW123870   2.602   3.774  14.342  0.0000  0.0000  0.0000
 3564SOL    HW223871   2.616   3.635  14.400  0.0000  0.0000  0.0000
 3564SOL     MW23872   2.650   3.703  14.357  0.0000  0.0000  0.0000
 3565SOL     OW23873   4.395   6.057  14.128  0.0000  0.0000  0.0000
 3565SOL    HW123874   4.367   6.077  14.039  0.0000  0.0000  0.0000
 3565SOL    HW223875   4.355   5.973  14.149  0.0000  0.0000  0.0000
 3565SOL     MW23876   4.386   6.049  14.119  0.0000  0.0000  0.0000
 3566SOL     OW23877   1.542   6.128  10.619  0.0000  0.0000  0.0000
 3566SOL    HW123878   1.551   6.222  10.602  0.0000  0.0000  0.0000
 3566SOL    HW223879   1.604   6.110  10.689  0.0000  0.0000  0.0000
 3566SOL     MW23880   1.552   6.138  10.626  0.0000  0.0000  0.0000
 3567SOL     OW23881   2.106   3.233  13.693  0.0000  0.0000  0.0000
 3567SOL    HW123882   2.051   3.155  13.703  0.0000  0.0000  0.0000
 3567SOL    HW223883   2.106   3.250  13.599  0.0000  0.0000  0.0000
 3567SOL     MW23884   2.099   3.225  13.682  0.0000  0.0000  0.0000
 3568SOL     OW23885   0.893   4.649  13.082  0.0000  0.0000  0.0000
 3568SOL    HW123886   0.921   4.737  13.057  0.0000  0.0000  0.0000
 3568SOL    HW223887   0.804   4.660  13.115  0.0000  0.0000  0.0000
 3568SOL     MW23888   0.885   4.662  13.083  0.0000  0.0000  0.0000
 3569SOL     OW23889   1.008   2.872  10.664  0.0000  0.0000  0.0000
 3569SOL    HW123890   0.981   2.920  10.586  0.0000  0.0000  0.0000
 3569SOL    HW223891   1.075   2.811  10.632  0.0000  0.0000  0.0000
 3569SOL     MW23892   1.014   2.871  10.649  0.0000  0.0000  0.0000
 3570SOL     OW23893   0.549   6.063  13.731  0.0000  0.0000  0.0000
 3570SOL    HW123894   0.555   6.050  13.826  0.0000  0.0000  0.0000
 3570SOL    HW223895   0.495   5.989  13.701  0.0000  0.0000  0.0000
 3570SOL     MW23896   0.543   6.051  13.739  0.0000  0.0000  0.0000
 3571SOL     OW23897   3.047   6.128   9.895  0.0000  0.0000  0.0000
 3571SOL    HW123898   3.018   6.157   9.981  0.0000  0.0000  0.0000
 3571SOL    HW223899   2.973   6.145   9.837  0.0000  0.0000  0.0000
 3571SOL     MW23900   3.033   6.134   9.898  0.0000  0.0000  0.0000
 3572SOL     OW23901   2.428   7.058  14.497  0.0000  0.0000  0.0000
 3572SOL    HW123902   2.476   7.052  14.580  0.0000  0.0000  0.0000
 3572SOL    HW223903   2.399   7.150  14.493  0.0000  0.0000  0.0000
 3572SOL     MW23904   2.430   7.070  14.507  0.0000  0.0000  0.0000
 3573SOL     OW23905   1.141   3.101  14.560  0.0000  0.0000  0.0000
 3573SOL    HW123906   1.229   3.080  14.591  0.0000  0.0000  0.0000
 3573SOL    HW223907   1.086   3.030  14.594  0.0000  0.0000  0.0000
 3573SOL     MW23908   1.145   3.089  14.568  0.0000  0.0000  0.0000
 3574SOL     OW23909   1.519   3.523  12.190  0.0000  0.0000  0.0000
 3574SOL    HW123910   1.577   3.541  12.116  0.0000  0.0000  0.0000
 3574SOL    HW223911   1.516   3.428  12.195  0.0000  0.0000  0.0000
 3574SOL     MW23912   1.526   3.513  12.181  0.0000  0.0000  0.0000
 3575SOL     OW23913   2.154   6.297  14.056  0.0000  0.0000  0.0000
 3575SOL    HW123914   2.076   6.321  14.005  0.0000  0.0000  0.0000
 3575SOL    HW223915   2.184   6.216  14.016  0.0000  0.0000  0.0000
 3575SOL     MW23916   2.148   6.289  14.044  0.0000  0.0000  0.0000
 3576SOL     OW23917   1.361   3.562  11.102  0.0000  0.0000  0.0000
 3576SOL    HW123918   1.305   3.530  11.173  0.0000  0.0000  0.0000
 3576SOL    HW223919   1.299   3.590  11.034  0.0000  0.0000  0.0000
 3576SOL     MW23920   1.345   3.562  11.102  0.0000  0.0000  0.0000
 3577SOL     OW23921   0.742   7.050  14.226  0.0000  0.0000  0.0000
 3577SOL    HW123922   0.674   7.089  14.171  0.0000  0.0000  0.0000
 3577SOL    HW223923   0.693   7.001  14.292  0.0000  0.0000  0.0000
 3577SOL     MW23924   0.726   7.049  14.227  0.0000  0.0000  0.0000
 3578SOL     OW23925   1.979   6.155  14.225  0.0000  0.0000  0.0000
 3578SOL    HW123926   1.986   6.070  14.181  0.0000  0.0000  0.0000
 3578SOL    HW223927   2.048   6.208  14.185  0.0000  0.0000  0.0000
 3578SOL     MW23928   1.989   6.151  14.214  0.0000  0.0000  0.0000
 3579SOL     OW23929   0.051   5.767  13.930  0.0000  0.0000  0.0000
 3579SOL    HW123930   0.017   5.830  13.993  0.0000  0.0000  0.0000
 3579SOL    HW223931  -0.013   5.767  13.859  0.0000  0.0000  0.0000
 3579SOL     MW23932   0.038   5.775  13.929  0.0000  0.0000  0.0000
 3580SOL     OW23933   0.607   2.825  13.186  0.0000  0.0000  0.0000
 3580SOL    HW123934   0.532   2.833  13.245  0.0000  0.0000  0.0000
 3580SOL    HW223935   0.619   2.913  13.150  0.0000  0.0000  0.0000
 3580SOL     MW23936   0.599   2.838  13.189  0.0000  0.0000  0.0000
 3581SOL     OW23937   1.695   7.111  14.104  0.0000  0.0000  0.0000
 3581SOL    HW123938   1.775   7.058  14.106  0.0000  0.0000  0.0000
 3581SOL    HW223939   1.725   7.201  14.116  0.0000  0.0000  0.0000
 3581SOL     MW23940   1.709   7.116  14.106  0.0000  0.0000  0.0000
 3582SOL     OW23941   2.919   6.707  13.755  0.0000  0.0000  0.0000
 3582SOL    HW123942   2.945   6.799  13.755  0.0000  0.0000  0.0000
 3582SOL    HW223943   2.967   6.669  13.681  0.0000  0.0000  0.0000
 3582SOL     MW23944   2.929   6.714  13.745  0.0000  0.0000  0.0000
 3583SOL     OW23945   4.048   2.883  14.179  0.0000  0.0000  0.0000
 3583SOL    HW123946   4.085   2.923  14.257  0.0000  0.0000  0.0000
 3583SOL    HW223947   3.999   2.807  14.212  0.0000  0.0000  0.0000
 3583SOL     MW23948   4.047   2.878  14.193  0.0000  0.0000  0.0000
 3584SOL     OW23949   2.489   4.836  10.692  0.0000  0.0000  0.0000
 3584SOL    HW123950   2.539   4.784  10.630  0.0000  0.0000  0.0000
 3584SOL    HW223951   2.430   4.889  10.638  0.0000  0.0000  0.0000
 3584SOL     MW23952   2.488   4.836  10.677  0.0000  0.0000  0.0000
 3585SOL     OW23953   2.359   7.006  13.554  0.0000  0.0000  0.0000
 3585SOL    HW123954   2.276   6.960  13.551  0.0000  0.0000  0.0000
 3585SOL    HW223955   2.419   6.953  13.502  0.0000  0.0000  0.0000
 3585SOL     MW23956   2.356   6.993  13.547  0.0000  0.0000  0.0000
 3586SOL     OW23957   4.447   4.828  14.146  0.0000  0.0000  0.0000
 3586SOL    HW123958   4.376   4.833  14.210  0.0000  0.0000  0.0000
 3586SOL    HW223959   4.414   4.770  14.077  0.0000  0.0000  0.0000
 3586SOL     MW23960   4.433   4.821  14.145  0.0000  0.0000  0.0000
 3587SOL     OW23961   3.102   5.381  11.307  0.0000  0.0000  0.0000
 3587SOL    HW123962   3.074   5.299  11.350  0.0000  0.0000  0.0000
 3587SOL    HW223963   3.023   5.436  11.309  0.0000  0.0000  0.0000
 3587SOL     MW23964   3.088   5.377  11.313  0.0000  0.0000  0.0000
 3588SOL     OW23965   2.627   3.236  10.502  0.0000  0.0000  0.0000
 3588SOL    HW123966   2.715   3.199  10.496  0.0000  0.0000  0.0000
 3588SOL    HW223967   2.638   3.318  10.549  0.0000  0.0000  0.0000
 3588SOL     MW23968   2.640   3.242  10.507  0.0000  0.0000  0.0000
   4.64875   4.63594  16.10800
